/*--------------------------------*- C++ -*----------------------------------*\
| =========                 |                                                 |
| \\      /  F ield         | OpenFOAM: The Open Source CFD Toolbox           |
|  \\    /   O peration     | Version:  v2006                                 |
|   \\  /    A nd           | Website:  www.openfoam.com                      |
|    \\/     M anipulation  |                                                 |
\*---------------------------------------------------------------------------*/
FoamFile
{
    version     2.0;
    format      ascii;
    class       volScalarField;
    location    "185";
    object      alphat;
}
// * * * * * * * * * * * * * * * * * * * * * * * * * * * * * * * * * * * * * //

dimensions      [1 -1 -1 0 0 0 0];


internalField   nonuniform List<scalar> 
93840
(
3.8519e-08
4.09164e-08
5.16556e-08
4.52109e-08
3.75394e-08
4.47179e-08
4.20399e-08
3.73829e-08
4.17622e-08
3.15501e-08
1.81013e-08
4.89323e-08
1.53435e-07
3.44864e-08
6.41582e-09
3.29384e-09
2.27398e-09
4.03728e-08
3.04965e-07
2.79215e-06
1.21267e-05
3.43403e-05
5.42379e-05
5.50595e-05
4.85079e-05
4.18092e-05
2.99975e-05
2.39592e-05
1.92023e-05
1.75504e-05
1.57457e-05
1.48835e-05
1.4851e-05
1.43049e-05
1.43697e-05
1.42327e-05
1.4071e-05
1.40537e-05
1.38539e-05
1.38611e-05
1.36779e-05
1.36849e-05
1.35165e-05
1.35019e-05
1.3351e-05
1.33219e-05
1.31835e-05
1.3154e-05
1.30272e-05
1.29844e-05
1.28712e-05
1.28256e-05
1.27027e-05
1.26464e-05
1.25749e-05
1.25666e-05
1.24821e-05
1.24159e-05
1.22944e-05
1.22395e-05
1.21864e-05
1.21191e-05
1.20399e-05
1.20159e-05
1.19708e-05
1.19248e-05
1.18987e-05
1.18762e-05
1.18394e-05
1.18128e-05
1.18046e-05
1.17825e-05
1.17784e-05
1.17732e-05
1.17703e-05
1.17666e-05
1.17792e-05
1.17793e-05
1.18067e-05
1.18177e-05
1.18339e-05
1.18459e-05
1.1871e-05
1.19082e-05
1.19523e-05
1.19868e-05
1.20332e-05
1.20711e-05
1.21104e-05
1.21551e-05
1.22243e-05
1.2301e-05
1.2372e-05
1.24552e-05
1.25357e-05
1.26326e-05
1.27235e-05
1.28192e-05
1.29176e-05
1.30286e-05
1.31414e-05
1.3247e-05
1.33635e-05
1.36119e-05
1.38495e-05
1.38851e-05
1.39142e-05
1.40905e-05
1.42774e-05
1.44638e-05
1.46447e-05
1.48266e-05
1.50047e-05
1.52204e-05
1.5411e-05
1.56038e-05
1.57881e-05
1.59987e-05
1.61778e-05
1.63575e-05
1.65158e-05
1.66922e-05
1.68156e-05
1.69518e-05
1.7019e-05
1.70836e-05
1.71883e-05
1.71669e-05
1.72851e-05
1.73124e-05
1.73254e-05
1.73739e-05
1.73701e-05
1.74376e-05
1.74534e-05
1.7487e-05
1.74891e-05
1.75401e-05
1.75517e-05
1.76059e-05
1.76364e-05
1.76789e-05
1.76866e-05
1.77286e-05
1.776e-05
1.7801e-05
1.78214e-05
1.78549e-05
1.78427e-05
1.78533e-05
1.78539e-05
1.78506e-05
1.78137e-05
1.77769e-05
1.77289e-05
1.76705e-05
1.75856e-05
1.74801e-05
1.73708e-05
1.7293e-05
1.72031e-05
1.70264e-05
1.67789e-05
1.65968e-05
1.63794e-05
1.5964e-05
1.50588e-05
1.28893e-05
7.97443e-06
2.17372e-06
6.43222e-06
1.11053e-05
4.0721e-06
2.69392e-11
2.67204e-08
2.57627e-07
2.42589e-08
9.44074e-11
1.53732e-09
8.29917e-10
6.41919e-09
2.2504e-13
2.68494e-11
2.26427e-13
1.04853e-08
1.04677e-09
4.43486e-11
4.50488e-07
1.83826e-07
7.1544e-09
2.67966e-06
3.94372e-06
3.67113e-08
3.26691e-06
1.16986e-05
1.59218e-05
1.71454e-05
1.73502e-05
1.74751e-05
1.76589e-05
1.76539e-05
1.75856e-05
1.74215e-05
1.73105e-05
1.72313e-05
1.72153e-05
1.71132e-05
1.70502e-05
1.6908e-05
1.6827e-05
1.6686e-05
1.66093e-05
1.64357e-05
1.63106e-05
1.61751e-05
1.61166e-05
1.59364e-05
1.58532e-05
1.56726e-05
1.55856e-05
1.53841e-05
1.53286e-05
1.51841e-05
1.51264e-05
1.496e-05
1.49003e-05
1.47463e-05
1.46991e-05
1.45434e-05
1.45092e-05
1.43218e-05
1.42774e-05
1.41198e-05
1.40741e-05
1.39135e-05
1.3856e-05
1.37327e-05
1.36438e-05
1.36014e-05
1.34372e-05
1.34609e-05
1.32517e-05
1.32846e-05
1.30928e-05
1.31463e-05
1.28836e-05
1.30418e-05
1.26789e-05
1.30254e-05
1.26758e-05
1.26488e-05
7.0793e-06
2.92018e-06
3.77304e-06
4.44868e-06
4.5465e-06
4.82885e-06
4.7294e-06
4.88391e-06
4.79398e-06
4.86308e-06
4.77644e-06
4.80963e-06
4.76461e-06
4.78614e-06
4.77161e-06
4.77191e-06
4.75888e-06
4.76901e-06
4.78514e-06
4.74538e-06
4.7211e-06
4.69881e-06
4.71949e-06
4.69147e-06
4.68849e-06
4.65962e-06
4.67332e-06
4.65467e-06
4.66761e-06
4.65086e-06
4.66255e-06
4.64917e-06
4.66089e-06
4.65087e-06
4.66285e-06
4.6543e-06
4.66546e-06
4.65759e-06
4.66755e-06
4.65936e-06
4.67001e-06
4.6609e-06
4.67125e-06
4.6613e-06
4.66945e-06
4.65694e-06
4.66402e-06
4.64885e-06
4.65308e-06
4.6361e-06
4.63865e-06
4.61988e-06
4.61858e-06
4.59412e-06
4.58864e-06
4.56353e-06
4.55682e-06
4.53007e-06
4.51927e-06
4.48967e-06
4.47165e-06
4.43896e-06
4.42008e-06
4.38684e-06
4.36453e-06
4.32545e-06
4.29115e-06
4.23745e-06
4.1883e-06
4.11997e-06
4.05074e-06
3.95921e-06
3.85414e-06
3.73294e-06
3.61744e-06
3.58141e-06
3.6817e-06
3.80087e-06
3.91207e-06
4.05008e-06
4.10509e-06
4.53887e-06
5.27216e-06
6.15698e-06
6.60674e-06
1.50628e-05
2.81915e-05
3.95758e-05
4.89462e-05
5.7314e-05
6.19732e-05
6.78608e-05
6.92151e-05
6.84316e-05
6.18963e-05
3.98406e-05
1.53435e-05
3.96996e-06
5.5703e-07
2.6875e-08
1.0665e-09
2.81171e-09
5.74814e-09
3.20926e-08
1.5149e-07
4.91659e-08
1.85534e-08
3.13057e-08
4.1765e-08
3.66934e-08
3.97221e-08
4.36406e-08
3.71966e-08
4.45254e-08
5.11155e-08
4.08196e-08
3.81493e-08
3.82805e-08
4.08137e-08
5.12685e-08
4.61783e-08
3.78978e-08
4.36312e-08
3.97344e-08
3.7527e-08
4.22323e-08
3.17149e-08
1.77828e-08
4.79099e-08
1.54277e-07
3.49481e-08
5.9823e-09
2.38464e-09
5.92582e-10
1.89609e-08
2.63906e-07
2.10045e-06
8.8725e-06
2.83084e-05
5.0502e-05
5.52366e-05
5.07434e-05
4.83329e-05
4.13045e-05
3.47793e-05
2.86983e-05
2.40076e-05
2.10098e-05
1.89863e-05
1.82993e-05
1.80707e-05
1.86977e-05
1.78571e-05
1.88891e-05
1.782e-05
1.89681e-05
1.78535e-05
1.89658e-05
1.79169e-05
1.89497e-05
1.79919e-05
1.89283e-05
1.80852e-05
1.8893e-05
1.8161e-05
1.88584e-05
1.82464e-05
1.8823e-05
1.83128e-05
1.88139e-05
1.8366e-05
1.87287e-05
1.83857e-05
1.87756e-05
1.84921e-05
1.8782e-05
1.85319e-05
1.87698e-05
1.85966e-05
1.87662e-05
1.86008e-05
1.8771e-05
1.86569e-05
1.8764e-05
1.86873e-05
1.8785e-05
1.87313e-05
1.88148e-05
1.87912e-05
1.8837e-05
1.88276e-05
1.88789e-05
1.88705e-05
1.89153e-05
1.89174e-05
1.89537e-05
1.89769e-05
1.90137e-05
1.90304e-05
1.90556e-05
1.9073e-05
1.91058e-05
1.91307e-05
1.91507e-05
1.91782e-05
1.91935e-05
1.91987e-05
1.92023e-05
1.92087e-05
1.92157e-05
1.92117e-05
1.92063e-05
1.91925e-05
1.91789e-05
1.91596e-05
1.91303e-05
1.90992e-05
1.90611e-05
1.90133e-05
1.89336e-05
1.88429e-05
1.87971e-05
1.87922e-05
1.87204e-05
1.86031e-05
1.84981e-05
1.83843e-05
1.82647e-05
1.81431e-05
1.80162e-05
1.78669e-05
1.77171e-05
1.75769e-05
1.74321e-05
1.72727e-05
1.71083e-05
1.69592e-05
1.68042e-05
1.66468e-05
1.64963e-05
1.63563e-05
1.62423e-05
1.61917e-05
1.59988e-05
1.60398e-05
1.58943e-05
1.57954e-05
1.57658e-05
1.56431e-05
1.56155e-05
1.55233e-05
1.54136e-05
1.53592e-05
1.52526e-05
1.51975e-05
1.50782e-05
1.4984e-05
1.48625e-05
1.47508e-05
1.46346e-05
1.45251e-05
1.43775e-05
1.4239e-05
1.40642e-05
1.38783e-05
1.36883e-05
1.35331e-05
1.33066e-05
1.30499e-05
1.27589e-05
1.24629e-05
1.20774e-05
1.16388e-05
1.11208e-05
1.06084e-05
1.01247e-05
9.64872e-06
8.93715e-06
7.81382e-06
6.50954e-06
5.73025e-06
5.46671e-06
4.90758e-06
3.41053e-06
1.20227e-06
6.81361e-10
2.16793e-08
4.00128e-07
1.93636e-07
9.23442e-08
4.85339e-14
1.02628e-10
2.95139e-10
9.07774e-12
6.26697e-10
1.30452e-09
2.17292e-11
1.23959e-14
1.72511e-15
1.7491e-16
1.1897e-14
2.83149e-08
1.39577e-08
2.89651e-08
2.23088e-07
1.80595e-07
4.26409e-11
2.2069e-07
1.53744e-07
1.77303e-08
7.29897e-07
2.15315e-06
4.36514e-06
4.01632e-06
3.42354e-06
4.50919e-06
6.46649e-06
7.5867e-06
8.04107e-06
8.50641e-06
9.42346e-06
1.03627e-05
1.12423e-05
1.18649e-05
1.24211e-05
1.27512e-05
1.30159e-05
1.31599e-05
1.33754e-05
1.34877e-05
1.3602e-05
1.35996e-05
1.37112e-05
1.37645e-05
1.38748e-05
1.38824e-05
1.39507e-05
1.38476e-05
1.39282e-05
1.39556e-05
1.4001e-05
1.40224e-05
1.40957e-05
1.41321e-05
1.41751e-05
1.42361e-05
1.42896e-05
1.4283e-05
1.42154e-05
1.42462e-05
1.41644e-05
1.41749e-05
1.41811e-05
1.41112e-05
1.42671e-05
1.41365e-05
1.43515e-05
1.41602e-05
1.43643e-05
1.41198e-05
1.4375e-05
1.3993e-05
1.44692e-05
1.38311e-05
1.45582e-05
1.37269e-05
1.55619e-05
1.42911e-05
1.69972e-05
2.04942e-05
2.26363e-05
2.25219e-05
2.2277e-05
2.22422e-05
2.20966e-05
2.20865e-05
2.2041e-05
2.20058e-05
2.18869e-05
2.17512e-05
2.15851e-05
2.13894e-05
2.12156e-05
2.09824e-05
2.07281e-05
2.04532e-05
2.03402e-05
2.01524e-05
1.99208e-05
1.96107e-05
1.94458e-05
1.92421e-05
1.90462e-05
1.87668e-05
1.85624e-05
1.83243e-05
1.81365e-05
1.79084e-05
1.77223e-05
1.75075e-05
1.73289e-05
1.71322e-05
1.69731e-05
1.67961e-05
1.66478e-05
1.64845e-05
1.63466e-05
1.61946e-05
1.60691e-05
1.59273e-05
1.5813e-05
1.56849e-05
1.5578e-05
1.54604e-05
1.53672e-05
1.52635e-05
1.5179e-05
1.50895e-05
1.5018e-05
1.4948e-05
1.48936e-05
1.48396e-05
1.47982e-05
1.47663e-05
1.47529e-05
1.47529e-05
1.47693e-05
1.48054e-05
1.48488e-05
1.49254e-05
1.50222e-05
1.51596e-05
1.53228e-05
1.55299e-05
1.57574e-05
1.60276e-05
1.63265e-05
1.66795e-05
1.70624e-05
1.75111e-05
1.79674e-05
1.85261e-05
1.90515e-05
1.96632e-05
2.02403e-05
2.08782e-05
2.14892e-05
2.21818e-05
2.28031e-05
2.41716e-05
2.66525e-05
2.92924e-05
3.36532e-05
4.66952e-05
6.36892e-05
8.10577e-05
9.55555e-05
0.000108007
0.00011471
0.000118333
0.000114755
0.000106009
8.47086e-05
5.10139e-05
1.963e-05
5.03299e-06
7.54489e-07
6.08928e-08
3.12004e-09
3.63803e-09
6.09409e-09
3.13308e-08
1.50189e-07
5.00096e-08
1.89191e-08
3.13484e-08
4.08312e-08
3.68902e-08
4.17264e-08
4.44378e-08
3.70418e-08
4.38387e-08
5.07185e-08
4.22895e-08
3.85967e-08
3.84924e-08
4.07628e-08
5.36769e-08
4.71232e-08
3.84534e-08
4.46072e-08
4.22822e-08
3.78261e-08
4.22078e-08
3.21971e-08
1.73747e-08
4.78566e-08
1.56579e-07
3.78431e-08
6.66586e-09
2.94557e-09
1.81676e-09
3.36837e-08
1.37457e-07
1.24345e-06
6.2594e-06
2.21173e-05
4.50155e-05
5.44565e-05
5.169e-05
5.10617e-05
4.68573e-05
4.31331e-05
3.92802e-05
3.60893e-05
3.37292e-05
3.2167e-05
3.06957e-05
3.11486e-05
3.05991e-05
3.06881e-05
3.06572e-05
3.05549e-05
3.07153e-05
3.05323e-05
3.07535e-05
3.05498e-05
3.08024e-05
3.05718e-05
3.08566e-05
3.06109e-05
3.08952e-05
3.0642e-05
3.09309e-05
3.06763e-05
3.09607e-05
3.06948e-05
3.09786e-05
3.07023e-05
3.09494e-05
3.07315e-05
3.10522e-05
3.0818e-05
3.10331e-05
3.08055e-05
3.10181e-05
3.0818e-05
3.09638e-05
3.07777e-05
3.09417e-05
3.07789e-05
3.08919e-05
3.07656e-05
3.08571e-05
3.07452e-05
3.08232e-05
3.07344e-05
3.07617e-05
3.06923e-05
3.07114e-05
3.06332e-05
3.06378e-05
3.05662e-05
3.05533e-05
3.05012e-05
3.04635e-05
3.03851e-05
3.03213e-05
3.02389e-05
3.01754e-05
3.00833e-05
2.99879e-05
2.9878e-05
2.97436e-05
2.9584e-05
2.94244e-05
2.92588e-05
2.90858e-05
2.88819e-05
2.86791e-05
2.84465e-05
2.82188e-05
2.79593e-05
2.76897e-05
2.7404e-05
2.71021e-05
2.67727e-05
2.64002e-05
2.6026e-05
2.574e-05
2.54739e-05
2.50788e-05
2.46156e-05
2.4173e-05
2.37051e-05
2.32376e-05
2.27601e-05
2.22781e-05
2.17591e-05
2.12601e-05
2.07743e-05
2.02971e-05
1.97925e-05
1.93067e-05
1.88489e-05
1.8417e-05
1.79713e-05
1.759e-05
1.72225e-05
1.69337e-05
1.66669e-05
1.6285e-05
1.61836e-05
1.5793e-05
1.55832e-05
1.53345e-05
1.50423e-05
1.48238e-05
1.45289e-05
1.42172e-05
1.39562e-05
1.3629e-05
1.33442e-05
1.29774e-05
1.26344e-05
1.22545e-05
1.19041e-05
1.15061e-05
1.11167e-05
1.06586e-05
1.02005e-05
9.64258e-06
9.06123e-06
8.45771e-06
7.84646e-06
7.06504e-06
6.27047e-06
5.52424e-06
4.84828e-06
4.08877e-06
3.3404e-06
2.4506e-06
1.62326e-06
1.29673e-06
1.40085e-06
7.8474e-07
2.8066e-08
1.59398e-09
2.82683e-08
3.26614e-09
2.77537e-09
1.81796e-08
5.66276e-09
7.8938e-11
9.03643e-12
6.78871e-10
2.25213e-14
1.07886e-10
8.86827e-10
2.43691e-10
2.14041e-11
2.80659e-09
7.61872e-10
7.93169e-10
1.67426e-10
1.49503e-10
8.03563e-16
5.01849e-16
4.77826e-12
3.88e-07
9.73342e-07
8.38521e-07
6.68357e-07
6.05437e-07
8.27976e-07
5.42967e-07
5.15965e-07
6.18673e-07
3.7692e-07
2.70561e-07
9.76194e-07
9.77427e-07
2.76899e-07
2.68984e-07
1.2418e-06
1.60749e-06
1.30369e-06
1.1215e-06
1.84947e-06
2.58699e-06
3.31367e-06
3.99572e-06
4.91597e-06
5.68967e-06
6.3895e-06
6.95452e-06
7.69079e-06
8.44015e-06
9.09038e-06
9.5406e-06
1.00478e-05
1.05202e-05
1.10367e-05
1.1421e-05
1.17669e-05
1.20403e-05
1.23302e-05
1.26311e-05
1.28319e-05
1.32062e-05
1.34823e-05
1.38474e-05
1.39973e-05
1.44119e-05
1.45534e-05
1.49426e-05
1.49512e-05
1.52778e-05
1.52597e-05
1.55212e-05
1.56929e-05
1.56747e-05
1.61804e-05
1.59718e-05
1.66117e-05
1.6315e-05
1.68792e-05
1.66318e-05
1.71775e-05
1.67386e-05
1.74602e-05
1.69102e-05
1.76554e-05
1.72326e-05
1.86597e-05
1.98494e-05
2.07161e-05
2.73659e-05
3.47851e-05
4.03294e-05
4.41718e-05
4.65055e-05
4.74159e-05
4.79207e-05
4.79804e-05
4.80283e-05
4.77902e-05
4.75782e-05
4.72338e-05
4.68716e-05
4.64998e-05
4.60271e-05
4.55018e-05
4.49591e-05
4.4695e-05
4.42704e-05
4.37899e-05
4.31793e-05
4.28404e-05
4.23895e-05
4.19694e-05
4.13941e-05
4.09777e-05
4.0476e-05
4.00806e-05
3.95987e-05
3.92078e-05
3.87565e-05
3.83836e-05
3.79705e-05
3.76374e-05
3.7264e-05
3.69514e-05
3.66057e-05
3.63185e-05
3.59998e-05
3.57352e-05
3.54373e-05
3.51926e-05
3.49213e-05
3.46947e-05
3.44438e-05
3.42418e-05
3.40188e-05
3.3834e-05
3.36359e-05
3.34711e-05
3.33074e-05
3.3175e-05
3.30512e-05
3.29479e-05
3.28614e-05
3.28011e-05
3.27738e-05
3.27689e-05
3.28085e-05
3.28631e-05
3.2979e-05
3.31231e-05
3.33467e-05
3.36087e-05
3.39619e-05
3.43513e-05
3.48347e-05
3.53554e-05
3.59848e-05
3.66528e-05
3.74397e-05
3.82527e-05
3.91969e-05
4.0149e-05
4.12284e-05
4.22816e-05
4.34786e-05
4.4571e-05
4.58686e-05
4.70995e-05
4.92063e-05
5.15545e-05
5.49898e-05
5.98421e-05
6.92277e-05
9.03457e-05
0.000112969
0.000133658
0.000151202
0.000163397
0.000169722
0.000167191
0.000156577
0.000124661
8.46288e-05
2.60804e-05
7.20167e-06
1.27564e-06
4.77393e-08
1.55282e-09
3.30669e-09
5.39887e-09
2.88266e-08
1.47778e-07
5.04519e-08
1.93389e-08
3.11317e-08
4.10899e-08
3.64057e-08
3.92673e-08
4.28575e-08
3.66405e-08
4.35175e-08
5.11852e-08
4.22855e-08
3.7978e-08
3.79565e-08
3.99094e-08
5.50058e-08
4.84745e-08
3.88397e-08
4.37031e-08
4.01108e-08
3.76152e-08
4.29991e-08
3.2428e-08
1.70917e-08
4.6883e-08
1.5708e-07
3.83432e-08
6.11019e-09
2.03037e-09
4.5617e-10
1.79804e-08
1.57322e-07
9.30077e-07
4.34658e-06
1.69964e-05
3.92735e-05
5.25787e-05
5.19359e-05
5.25074e-05
5.01199e-05
4.72366e-05
4.50126e-05
4.27605e-05
4.12731e-05
4.01735e-05
3.97223e-05
3.9167e-05
3.92148e-05
3.88859e-05
3.90747e-05
3.88355e-05
3.9063e-05
3.88728e-05
3.90755e-05
3.89318e-05
3.91112e-05
3.89733e-05
3.91596e-05
3.90259e-05
3.91954e-05
3.90671e-05
3.92271e-05
3.90998e-05
3.92597e-05
3.91079e-05
3.92693e-05
3.9118e-05
3.92587e-05
3.91164e-05
3.93166e-05
3.91542e-05
3.92843e-05
3.91125e-05
3.92444e-05
3.90684e-05
3.91665e-05
3.89882e-05
3.90906e-05
3.89318e-05
3.89944e-05
3.88494e-05
3.88931e-05
3.87538e-05
3.87849e-05
3.86519e-05
3.86371e-05
3.85096e-05
3.84785e-05
3.83399e-05
3.82849e-05
3.81435e-05
3.80627e-05
3.79267e-05
3.781e-05
3.76408e-05
3.74884e-05
3.73048e-05
3.71364e-05
3.69276e-05
3.67136e-05
3.64695e-05
3.62007e-05
3.58968e-05
3.55909e-05
3.52608e-05
3.49232e-05
3.45402e-05
3.41583e-05
3.37294e-05
3.3305e-05
3.28368e-05
3.23586e-05
3.18529e-05
3.13267e-05
3.07693e-05
3.01797e-05
2.9564e-05
2.90055e-05
2.8482e-05
2.78572e-05
2.71333e-05
2.64149e-05
2.56619e-05
2.49195e-05
2.41646e-05
2.34186e-05
2.26218e-05
2.18663e-05
2.11289e-05
2.04217e-05
1.96719e-05
1.89626e-05
1.82928e-05
1.76736e-05
1.70239e-05
1.64748e-05
1.5925e-05
1.54967e-05
1.50457e-05
1.45421e-05
1.425e-05
1.372e-05
1.33513e-05
1.28974e-05
1.24539e-05
1.20279e-05
1.15699e-05
1.1038e-05
1.05856e-05
1.00332e-05
9.51915e-06
8.88411e-06
8.25244e-06
7.54729e-06
6.87511e-06
6.12664e-06
5.43791e-06
4.68202e-06
3.97429e-06
3.18758e-06
2.56598e-06
2.06582e-06
1.55874e-06
8.56666e-07
5.75992e-07
5.09715e-07
2.96234e-07
9.76066e-08
1.01659e-07
1.8057e-08
2.69277e-09
4.82386e-09
1.5037e-08
3.92979e-09
2.40807e-09
2.92291e-09
3.48453e-09
2.19714e-09
1.25472e-08
1.77247e-09
7.58252e-10
9.10971e-10
2.69742e-10
1.62447e-10
1.3779e-09
9.13092e-11
6.55915e-10
2.44355e-10
5.95852e-10
4.27228e-12
1.59812e-13
2.28167e-10
2.30526e-09
4.59716e-10
1.52356e-14
7.76244e-13
3.6072e-07
1.68633e-06
1.27482e-06
9.09584e-07
7.12423e-07
5.24637e-07
7.19935e-07
5.19017e-07
4.86989e-07
5.54277e-07
4.82746e-07
3.23345e-07
5.61576e-07
5.42363e-07
3.8926e-07
3.32174e-07
4.82524e-07
4.70405e-07
4.10791e-07
2.19751e-07
4.10344e-07
4.92044e-07
5.47735e-07
5.93093e-07
9.83594e-07
1.18442e-06
1.49759e-06
1.76574e-06
2.07147e-06
2.60122e-06
3.28313e-06
3.75256e-06
4.19225e-06
4.78371e-06
5.59642e-06
6.40133e-06
7.00551e-06
7.6693e-06
8.21866e-06
8.85914e-06
9.26137e-06
1.00039e-05
1.05164e-05
1.1258e-05
1.15384e-05
1.22928e-05
1.25378e-05
1.33143e-05
1.3431e-05
1.40826e-05
1.41766e-05
1.46254e-05
1.49915e-05
1.51079e-05
1.58553e-05
1.56743e-05
1.6554e-05
1.63704e-05
1.70587e-05
1.70131e-05
1.75901e-05
1.74954e-05
1.80323e-05
1.80518e-05
1.83069e-05
1.87433e-05
1.95244e-05
2.25571e-05
2.36438e-05
3.1309e-05
4.15182e-05
5.09866e-05
5.83371e-05
6.35419e-05
6.68345e-05
6.9139e-05
7.06977e-05
7.18097e-05
7.23652e-05
7.26745e-05
7.26917e-05
7.25404e-05
7.22818e-05
7.18084e-05
7.1172e-05
7.05116e-05
7.02056e-05
6.96337e-05
6.89438e-05
6.81015e-05
6.76302e-05
6.69625e-05
6.63185e-05
6.54691e-05
6.48527e-05
6.40979e-05
6.34878e-05
6.27526e-05
6.21532e-05
6.14587e-05
6.08835e-05
6.02491e-05
5.97343e-05
5.91556e-05
5.86693e-05
5.81338e-05
5.76881e-05
5.71932e-05
5.678e-05
5.63193e-05
5.59366e-05
5.55104e-05
5.51557e-05
5.47631e-05
5.44402e-05
5.40895e-05
5.37963e-05
5.34796e-05
5.32061e-05
5.29352e-05
5.27139e-05
5.25099e-05
5.23347e-05
5.21827e-05
5.20594e-05
5.19855e-05
5.19415e-05
5.19655e-05
5.20139e-05
5.21494e-05
5.23168e-05
5.25933e-05
5.2922e-05
5.33812e-05
5.38969e-05
5.45518e-05
5.52568e-05
5.61088e-05
5.70085e-05
5.80597e-05
5.91523e-05
6.03962e-05
6.166e-05
6.30607e-05
6.44411e-05
6.59744e-05
6.73736e-05
6.90542e-05
7.0534e-05
7.27573e-05
7.53046e-05
7.91196e-05
8.40727e-05
9.4218e-05
0.000112787
0.000138576
0.000161747
0.000183233
0.000199448
0.000209862
0.000210154
0.000201365
0.000165087
0.000125575
4.28407e-05
8.95902e-06
1.71474e-06
1.15992e-07
3.93712e-09
4.23087e-09
5.78499e-09
2.80626e-08
1.46261e-07
5.13577e-08
1.96493e-08
3.13051e-08
4.04726e-08
3.66825e-08
4.13062e-08
4.4439e-08
3.68282e-08
4.30508e-08
5.32298e-08
4.21855e-08
3.87327e-08
3.85261e-08
4.05051e-08
5.46571e-08
4.94934e-08
3.94493e-08
4.40954e-08
4.2539e-08
3.79437e-08
4.30734e-08
3.28713e-08
1.67468e-08
4.66434e-08
1.59274e-07
4.10521e-08
6.77341e-09
2.53538e-09
1.4818e-09
2.99752e-08
9.62013e-08
4.74977e-07
2.85841e-06
1.23038e-05
3.28063e-05
4.92741e-05
5.10008e-05
5.24317e-05
5.22313e-05
5.04782e-05
4.94061e-05
4.79922e-05
4.71639e-05
4.6429e-05
4.58874e-05
4.57492e-05
4.54263e-05
4.54597e-05
4.53031e-05
4.53694e-05
4.5321e-05
4.53722e-05
4.53805e-05
4.54045e-05
4.54486e-05
4.54392e-05
4.55148e-05
4.54909e-05
4.55659e-05
4.55306e-05
4.56047e-05
4.55558e-05
4.56421e-05
4.5554e-05
4.56452e-05
4.55645e-05
4.56323e-05
4.55268e-05
4.56366e-05
4.55322e-05
4.55927e-05
4.54596e-05
4.55216e-05
4.53713e-05
4.5414e-05
4.52472e-05
4.52808e-05
4.51257e-05
4.51288e-05
4.49641e-05
4.49519e-05
4.47842e-05
4.47514e-05
4.45766e-05
4.45004e-05
4.43183e-05
4.42194e-05
4.40175e-05
4.38853e-05
4.36689e-05
4.35016e-05
4.32733e-05
4.30643e-05
4.27961e-05
4.25426e-05
4.22433e-05
4.19548e-05
4.1617e-05
4.12697e-05
4.08809e-05
4.04691e-05
4.0012e-05
3.95476e-05
3.90394e-05
3.85255e-05
3.79528e-05
3.73798e-05
3.67454e-05
3.61141e-05
3.5432e-05
3.47397e-05
3.40107e-05
3.32602e-05
3.24795e-05
3.16759e-05
3.07985e-05
2.9948e-05
2.91744e-05
2.83451e-05
2.73702e-05
2.63926e-05
2.53728e-05
2.43829e-05
2.33798e-05
2.24066e-05
2.13697e-05
2.04035e-05
1.94617e-05
1.85731e-05
1.76185e-05
1.67397e-05
1.58937e-05
1.51315e-05
1.42905e-05
1.36109e-05
1.28861e-05
1.23311e-05
1.16814e-05
1.10737e-05
1.05614e-05
9.91097e-06
9.3309e-06
8.65682e-06
7.99886e-06
7.29761e-06
6.59732e-06
5.76349e-06
5.07166e-06
4.26665e-06
3.59987e-06
2.83071e-06
2.21858e-06
1.61807e-06
1.19759e-06
6.9698e-07
5.31424e-07
3.01087e-07
1.70878e-07
2.48043e-08
2.08226e-08
2.52236e-08
4.17801e-08
2.55554e-08
7.27662e-08
7.54988e-08
7.84832e-08
4.28491e-08
3.0526e-08
1.15204e-08
3.2555e-08
1.47783e-08
2.01751e-08
1.1831e-08
1.67163e-08
1.10768e-08
1.25465e-08
8.52418e-09
1.1973e-08
2.24283e-09
2.744e-09
4.22548e-10
2.21483e-09
4.60467e-09
4.91616e-09
6.48499e-09
1.64615e-09
9.39163e-10
1.37203e-10
2.39205e-09
2.11787e-14
7.64247e-10
1.28327e-08
2.2127e-12
1.1908e-14
1.35085e-16
9.28967e-07
1.35081e-06
1.03443e-07
1.76817e-07
6.83722e-08
8.97307e-08
1.04884e-07
9.5346e-08
9.42708e-08
1.49157e-07
1.53588e-07
1.49647e-07
1.25777e-07
1.7164e-07
1.39337e-07
1.67751e-07
1.26955e-07
1.60473e-07
1.08581e-07
1.21816e-07
9.53644e-08
1.27565e-07
9.25041e-08
1.20979e-07
1.20029e-07
2.13102e-07
1.36622e-07
3.75873e-07
2.34374e-07
4.30684e-07
5.37902e-07
8.22665e-07
7.05471e-07
1.00995e-06
1.19704e-06
1.87211e-06
1.97751e-06
2.53418e-06
2.80702e-06
3.51958e-06
3.72109e-06
4.66679e-06
5.31098e-06
6.47511e-06
6.89683e-06
8.04672e-06
8.45311e-06
9.66929e-06
9.99411e-06
1.09506e-05
1.11812e-05
1.18855e-05
1.24298e-05
1.27593e-05
1.36737e-05
1.36695e-05
1.46516e-05
1.47244e-05
1.54524e-05
1.57932e-05
1.62526e-05
1.66261e-05
1.6876e-05
1.75686e-05
1.73972e-05
1.85571e-05
1.86422e-05
2.31076e-05
2.54239e-05
3.29182e-05
4.51392e-05
5.79896e-05
6.86987e-05
7.67916e-05
8.26078e-05
8.6996e-05
9.05044e-05
9.32324e-05
9.52542e-05
9.67412e-05
9.77841e-05
9.84521e-05
9.8857e-05
9.88751e-05
9.85161e-05
9.80438e-05
9.7989e-05
9.75576e-05
9.68233e-05
9.58737e-05
9.53774e-05
9.46201e-05
9.38182e-05
9.27499e-05
9.19611e-05
9.09921e-05
9.01802e-05
8.92087e-05
8.84027e-05
8.74722e-05
8.66876e-05
8.5831e-05
8.51235e-05
8.43334e-05
8.36638e-05
8.29287e-05
8.23117e-05
8.16289e-05
8.10546e-05
8.04186e-05
7.98874e-05
7.92926e-05
7.87934e-05
7.82425e-05
7.77858e-05
7.72908e-05
7.68719e-05
7.64178e-05
7.60199e-05
7.56208e-05
7.52935e-05
7.49917e-05
7.47282e-05
7.44899e-05
7.42811e-05
7.41381e-05
7.40319e-05
7.40193e-05
7.40373e-05
7.41682e-05
7.43342e-05
7.46366e-05
7.50007e-05
7.55364e-05
7.61461e-05
7.69393e-05
7.77927e-05
7.88309e-05
7.99236e-05
8.12045e-05
8.25237e-05
8.40377e-05
8.55463e-05
8.72281e-05
8.88591e-05
9.0636e-05
9.23537e-05
9.42115e-05
9.602e-05
9.83273e-05
0.000100824
0.000104579
0.000109845
0.000119214
0.000135148
0.000162213
0.000188563
0.000212907
0.000233661
0.000247945
0.000252448
0.00024593
0.000208457
0.000170467
8.18113e-05
1.4417e-05
2.39109e-06
1.17604e-07
2.49029e-09
4.12676e-09
5.27032e-09
2.60277e-08
1.44176e-07
5.16188e-08
1.99909e-08
3.11821e-08
4.08053e-08
3.55864e-08
3.89941e-08
4.25502e-08
3.67657e-08
4.25596e-08
5.12343e-08
4.1709e-08
3.79409e-08
3.81672e-08
4.02905e-08
5.25119e-08
5.05362e-08
3.97216e-08
4.3347e-08
4.07238e-08
3.80301e-08
4.34223e-08
3.33259e-08
1.65788e-08
4.56283e-08
1.59369e-07
4.17939e-08
6.17684e-09
1.6284e-09
3.07199e-10
1.65469e-08
1.34574e-07
4.23708e-07
1.72795e-06
8.35054e-06
2.58451e-05
4.45827e-05
4.9349e-05
5.12925e-05
5.27255e-05
5.18111e-05
5.16849e-05
5.08597e-05
5.05666e-05
5.01492e-05
4.99846e-05
4.979e-05
4.97474e-05
4.96784e-05
4.9696e-05
4.96983e-05
4.97349e-05
4.9783e-05
4.98076e-05
4.98716e-05
4.99024e-05
4.99379e-05
4.99967e-05
5.00157e-05
5.00639e-05
5.0075e-05
5.01199e-05
5.01121e-05
5.01689e-05
5.01229e-05
5.01748e-05
5.01393e-05
5.01632e-05
5.0087e-05
5.01299e-05
5.0072e-05
5.00827e-05
4.99716e-05
4.99814e-05
4.98553e-05
4.98486e-05
4.9691e-05
4.96592e-05
4.95113e-05
4.94454e-05
4.9273e-05
4.91989e-05
4.90013e-05
4.88947e-05
4.86789e-05
4.85334e-05
4.82954e-05
4.81199e-05
4.78525e-05
4.76339e-05
4.73364e-05
4.70729e-05
4.67476e-05
4.64368e-05
4.60634e-05
4.56986e-05
4.52758e-05
4.48561e-05
4.43803e-05
4.38907e-05
4.33502e-05
4.27899e-05
4.21731e-05
4.15426e-05
4.08482e-05
4.01506e-05
3.93808e-05
3.86088e-05
3.77634e-05
3.69216e-05
3.60235e-05
3.51164e-05
3.41661e-05
3.31951e-05
3.21945e-05
3.11765e-05
3.00272e-05
2.88898e-05
2.78847e-05
2.6866e-05
2.56602e-05
2.44522e-05
2.3192e-05
2.19897e-05
2.07747e-05
1.96168e-05
1.838e-05
1.72557e-05
1.61528e-05
1.51233e-05
1.40041e-05
1.29986e-05
1.20087e-05
1.11275e-05
1.01052e-05
9.28368e-06
8.33758e-06
7.61145e-06
6.68718e-06
5.93601e-06
5.139e-06
4.40068e-06
3.65162e-06
2.89711e-06
2.25418e-06
1.74468e-06
1.27909e-06
7.00632e-07
4.30941e-07
1.21862e-07
6.35248e-08
4.83495e-09
6.84234e-09
2.68161e-09
7.15642e-09
2.19508e-09
1.38011e-08
4.20645e-09
8.22053e-09
6.24499e-10
5.04621e-09
4.73252e-09
2.21078e-08
2.36325e-08
5.57477e-08
4.08086e-08
4.61135e-08
1.68559e-08
1.25007e-08
5.78478e-09
8.05273e-09
3.19952e-09
8.21786e-09
5.70953e-09
6.70755e-09
5.0178e-09
7.03993e-09
8.67764e-09
3.12966e-09
1.18678e-09
6.83608e-10
3.04183e-09
1.95998e-09
4.10921e-09
5.98365e-10
2.47696e-09
1.13358e-10
4.3975e-09
7.82498e-11
4.86302e-09
8.00853e-10
6.54957e-11
6.52979e-11
1.53634e-13
1.8734e-15
1.52049e-10
1.20838e-06
7.74667e-07
1.66559e-08
5.44406e-07
1.09183e-07
3.58225e-07
1.37729e-07
2.90243e-07
1.33117e-07
2.93031e-07
1.18074e-07
3.17578e-07
1.41976e-07
3.45357e-07
1.13488e-07
3.19024e-07
9.67371e-08
2.83792e-07
7.31124e-08
2.36431e-07
5.54284e-08
2.37514e-07
3.29669e-08
2.42012e-07
2.79341e-08
3.48462e-07
4.66074e-08
4.62199e-07
1.07019e-07
5.28617e-07
1.73393e-07
7.02506e-07
1.78243e-07
7.82981e-07
2.29504e-07
8.48617e-07
3.22758e-07
9.64972e-07
3.43888e-07
1.19844e-06
6.08391e-07
1.32247e-06
1.01944e-06
2.20836e-06
1.99032e-06
3.04666e-06
3.04348e-06
4.51641e-06
4.86603e-06
6.10656e-06
6.39502e-06
7.35412e-06
8.07209e-06
8.74953e-06
9.79083e-06
1.01274e-05
1.11087e-05
1.15867e-05
1.22076e-05
1.30309e-05
1.33521e-05
1.43021e-05
1.42872e-05
1.55808e-05
1.5127e-05
1.68014e-05
1.65477e-05
2.16946e-05
2.61604e-05
3.36698e-05
4.65407e-05
6.19376e-05
7.5658e-05
8.6596e-05
9.49257e-05
0.0001015
0.000106954
0.000111446
0.000115076
0.00011799
0.000120363
0.000122185
0.00012365
0.000124571
0.000124911
0.000125014
0.000125571
0.000125716
0.000125292
0.000124509
0.00012422
0.000123675
0.000122943
0.000121842
0.000121007
0.000119974
0.000119067
0.000117973
0.000117031
0.000115946
0.000115005
0.000113986
0.000113125
0.000112167
0.000111341
0.00011044
0.00010967
0.000108827
0.000108105
0.000107311
0.000106637
0.000105888
0.000105249
0.00010455
0.00010396
0.000103327
0.000102782
0.000102187
0.00010166
0.000101129
0.000100687
0.00010028
9.99168e-05
9.95814e-05
9.92749e-05
9.90436e-05
9.88547e-05
9.87844e-05
9.87493e-05
9.88478e-05
9.89812e-05
9.92824e-05
9.96435e-05
0.00010022
0.000100879
0.000101767
0.000102717
0.000103886
0.000105102
0.000106539
0.000108003
0.000109676
0.000111326
0.00011317
0.00011491
0.000116863
0.000118653
0.000120737
0.000122504
0.000124919
0.000127272
0.000131105
0.000135775
0.000144757
0.000158663
0.000183423
0.000210625
0.000237603
0.00026118
0.000279933
0.000288697
0.000286217
0.000250319
0.000215451
0.000132136
2.35251e-05
3.49387e-06
2.954e-07
6.30844e-09
5.20488e-09
5.74041e-09
2.54289e-08
1.42594e-07
5.26819e-08
2.01198e-08
3.14367e-08
3.99616e-08
3.65125e-08
4.11597e-08
4.47163e-08
3.65869e-08
4.23606e-08
5.15851e-08
4.22242e-08
3.84363e-08
3.85049e-08
4.03485e-08
5.11424e-08
4.99656e-08
4.02795e-08
4.39339e-08
4.30937e-08
3.76778e-08
4.32504e-08
3.38939e-08
1.63528e-08
4.52594e-08
1.60477e-07
4.51536e-08
7.11403e-09
2.28819e-09
1.30655e-09
2.71158e-08
8.71352e-08
2.35093e-07
8.97057e-07
5.18215e-06
1.89395e-05
3.83281e-05
4.63025e-05
4.88823e-05
5.17652e-05
5.18761e-05
5.23768e-05
5.22579e-05
5.22421e-05
5.22093e-05
5.20874e-05
5.22148e-05
5.2068e-05
5.22699e-05
5.21475e-05
5.23579e-05
5.22817e-05
5.24708e-05
5.24296e-05
5.25842e-05
5.25758e-05
5.26856e-05
5.2711e-05
5.27875e-05
5.28155e-05
5.28671e-05
5.29031e-05
5.29252e-05
5.2975e-05
5.29574e-05
5.29931e-05
5.29806e-05
5.29889e-05
5.29235e-05
5.29252e-05
5.28916e-05
5.28776e-05
5.27831e-05
5.2756e-05
5.26455e-05
5.25999e-05
5.2444e-05
5.236e-05
5.22064e-05
5.20811e-05
5.18914e-05
5.17533e-05
5.15307e-05
5.13438e-05
5.1088e-05
5.0864e-05
5.05718e-05
5.03102e-05
4.99752e-05
4.96603e-05
4.92796e-05
4.89099e-05
4.8485e-05
4.80639e-05
4.75809e-05
4.70959e-05
4.65425e-05
4.59856e-05
4.53656e-05
4.4728e-05
4.40321e-05
4.33178e-05
4.25358e-05
4.17322e-05
4.0846e-05
3.99595e-05
3.89889e-05
3.80152e-05
3.69584e-05
3.59068e-05
3.4796e-05
3.36778e-05
3.2511e-05
3.13257e-05
3.01112e-05
2.88811e-05
2.7463e-05
2.60676e-05
2.48572e-05
2.36719e-05
2.22577e-05
2.08562e-05
1.93891e-05
1.80156e-05
1.66246e-05
1.53191e-05
1.39241e-05
1.26787e-05
1.14339e-05
1.0262e-05
8.93498e-06
7.7693e-06
6.55398e-06
5.55104e-06
4.34974e-06
3.57093e-06
2.61362e-06
2.12483e-06
1.22871e-06
1.04541e-06
4.25466e-07
4.16915e-07
7.32567e-08
8.69581e-08
1.29414e-08
9.41552e-08
9.87294e-09
5.72388e-08
4.62133e-09
1.91084e-08
1.28074e-09
1.14668e-08
8.6228e-10
2.64991e-08
3.82404e-09
4.41303e-08
1.16382e-08
5.21908e-08
6.38451e-09
2.59419e-08
8.20934e-09
6.4906e-08
3.49413e-08
1.38293e-07
5.96444e-08
1.42971e-07
3.89349e-08
6.74034e-08
9.95968e-09
4.012e-08
1.0874e-08
5.25309e-08
1.80609e-08
4.23244e-08
7.89841e-09
4.03687e-08
1.3093e-08
3.71449e-08
3.35946e-09
1.28549e-08
2.00081e-09
1.09244e-08
5.73814e-10
5.32357e-09
2.00032e-10
2.24286e-09
2.11369e-11
1.0114e-09
1.2162e-09
6.90028e-09
8.85473e-09
2.4836e-11
4.5016e-10
2.74e-12
7.95873e-15
6.59553e-11
1.27922e-06
3.4147e-07
7.07099e-08
4.09098e-07
1.98881e-09
1.45997e-07
2.04555e-09
1.48382e-07
4.8269e-09
1.44134e-07
4.46303e-09
1.98705e-07
9.21306e-09
2.02573e-07
6.33142e-09
1.97692e-07
5.49889e-09
1.7593e-07
1.92587e-09
1.25834e-07
6.52659e-10
1.29255e-07
8.18364e-11
1.21579e-07
6.4096e-12
1.71357e-07
1.49242e-10
2.63995e-07
4.68769e-09
4.13962e-07
2.85912e-08
6.00817e-07
4.27493e-08
7.10506e-07
7.02675e-08
7.41051e-07
8.69785e-08
8.18396e-07
6.43999e-08
8.68913e-07
6.11631e-08
8.0765e-07
3.36821e-08
9.71193e-07
9.09641e-08
1.18542e-06
2.36771e-07
1.53186e-06
1.11498e-06
2.28901e-06
1.8409e-06
2.619e-06
2.9062e-06
3.74589e-06
4.51464e-06
5.19219e-06
5.97968e-06
7.00214e-06
7.52816e-06