/*--------------------------------*- C++ -*----------------------------------*\
| =========                 |                                                 |
| \\      /  F ield         | OpenFOAM: The Open Source CFD Toolbox           |
|  \\    /   O peration     | Version:  v2006                                 |
|   \\  /    A nd           | Website:  www.openfoam.com                      |
|    \\/     M anipulation  |                                                 |
\*---------------------------------------------------------------------------*/
FoamFile
{
    version     2.0;
    format      ascii;
    class       volScalarField;
    location    "185";
    object      ducSensor;
}
// * * * * * * * * * * * * * * * * * * * * * * * * * * * * * * * * * * * * * //

dimensions      [0 0 0 0 0 0 0];


internalField   nonuniform List<scalar> 
93840
(
0.0401724
0
0.0464952
0.00989556
0
0
0.0315786
0.000601376
0
0.030749
0.0144524
0.0328145
0.023402
0.00284024
0
0.027136
0
0.202849
0
0.166693
0
0
0
0.00179271
0
0
0
0
0
0.000715442
0
0.0104197
0.0025689
0
0
0
0
0
0
0
0
0
0
0
0
0
0
0
0
0
0
0
0
0
0
0
0
0
0
0
0
0
0
0
0
0
0.000149242
8.69648e-05
5.68151e-05
0
0
1.55423e-05
0.000146802
0.000266426
0.000139197
0.000227712
0.000216743
0.000239342
0.000258651
0.000244089
0.000238393
0.000264185
0.000289769
0.000330729
0.000319937
0.000332254
0.000336975
0.000327006
0.000338798
0.000378121
0.000420318
0.000419168
0.000424824
0.000434829
0.000455556
0.0004737
0.000477328
0.000485814
0.000504893
0.000517953
0.000508599
0.000504301
0.000673666
0.000837662
0.000575927
0.000308343
0.000476275
0.000699811
0.000715876
0.000707436
0.000689228
0.00066909
0.000710633
0.000708275
0.000669998
0.000626302
0.000621432
0.000584299
0.00047279
0.000393669
0.000311253
0.000210218
3.63874e-05
0
0
0
0
0
0
0
0
0
0
0
0
0
0
0
0
0
0
0
0
0
0
0
0
0
0
0
0
0
0
0
0
0
0
0
0
0
0
0
0
0
0
0
0
0
0
0
0
0
0
0
0
0
0
0
0
0
0
0
0
0
0
0
0
0
0
0
0
0
0
0
0
0
0
0
0
0
0
0.000571431
0
0
0.000250144
0.000140971
9.50412e-05
0.000128529
0.000292012
0
0
0
0
0
0
6.63319e-05
0
0
0
0
0
0
0
0
6.10176e-05
0
0
2.76684e-05
3.42225e-05
0
0
0
0
0
0
0
0
0
0
0
0
0
0
0
0
0
0
0
0.00156573
0.00655576
0.010787
0.0143891
0.414762
0.00664918
0.000175145
0
0
0
0
0
0
0
0
0
0
0
0
0
0
0
0
0
0
0
0
0
0
0
0
0
0
0
2.52344e-05
3.58436e-05
6.36452e-05
4.74028e-05
5.76194e-05
3.65599e-05
5.77981e-05
4.96906e-05
8.78803e-05
8.8036e-05
0.000135213
0.000131643
0.000174854
0.000152029
0.000184283
0.000139392
0.000158779
0.000101817
0.000117036
4.23552e-05
4.62041e-05
0
0
0
0
0
0
0
0
0
0
0
0
0
0
0
0
0
0
0
0
0
0
0
0
0
0
0
0
0
0.910184
0
0
0
0
0
0
0
0
0
0
0
0
0
0
0
0.138542
0
0
0.00148277
0
0
0.00686137
0.0232596
0.032317
0.0130067
0.0305852
0
0
0.0199461
0
0
0.0385619
0.0567751
0
0.0215126
0.0182438
0
0
0
0
0
0.022816
0
0
0.0349822
0.0172468
0.0385973
0.0252453
0.015238
0
0.0273225
0
0.142636
0
0.171751
0.0459766
0.0390738
0.0356753
0.044039
0.0570313
0.103755
0.150536
0.100331
0.0767252
0.0792241
0.00530436
0
0
0
0
0
0
0
0
0
0
0
0
0
0
0
0
1.47012e-05
0
0
0
0
0
0.00209792
0.000506691
0
0.000694232
0.00527671
0
0
0.000807953
0.00175096
0
0.000972676
0.000586072
0.00158102
0.00324762
0.00265081
0.00223041
0.000251341
0
0.00138279
0.00208998
0.00313207
0.00185862
0.00224435
0.00218643
0.002118
0.00219965
0.00215021
0.00211324
0.00220695
0.0021228
0.00228253
0.00227953
0.00234806
0.00239092
0.00237525
0.00236693
0.00240085
0.00243073
0.00242685
0.00243705
0.00249362
0.00261638
0.0027415
0.00282427
0.00286658
0.00292077
0.00292709
0.00287891
0.00284834
0.00345904
0.00430411
0.00353399
0.00238012
0.00311204
0.00404306
0.00421867
0.00423814
0.00421213
0.00409586
0.004338
0.00442134
0.00412785
0.00385266
0.00397388
0.00353297
0.00280645
0.00188305
0.00135173
0
0
0
0
0
0
0
0
0
0
0
0
0
0
0
0
0
0
0
0
0
0
0
0
0
0
0
0
0
0
0
0
0
0
0
0
0
0
0
0
0
0
0
0
0
0
0
0
0
0
0
0
0
0
0.000573949
0.187293
0.319224
0.150505
0.202937
0.130751
0.294189
0.307945
0.209548
0
0
0
0
0
0
0
0
0
0
0
0
0
0
0
0
0
0
0
0
0
0
0
0
0
0
0
0
0
0
0
0
0
0
0
0
0
0
0
0
0
0
0
0
0
0
0
0
0
0
0
0
0
0
0
0
0
0
0
0
0
0
0
0
0.0188584
0.0408419
0.0896108
0.0240906
0
0
0
0
0
0
0
0
0
0
0
0
0
0
0
0
0
0
0
0
0
0
0
0
0
0
0
0
0
0
0
0
0
0
0
0
0
0
0
0
0
2.38401e-05
0.000372241
0.000359132
0.000671071
0.000546289
0.000820659
0.000585612
0.00083165
0.000552203
0.000947286
0.000785653
0.00134652
0.00117008
0.0018992
0.00190176
0.00292601
0.00320718
0.00453321
0.00505124
0.00655864
0.00712838
0.00908275
0.0102555
0.0128988
0.0147552
0.0183377
0.0212488
0.0264254
0.0309235
0.0389996
0.0351824
0.0695104
0.0547388
0.0998224
0.0848799
0.106515
0.100655
0.151424
0.15942
0
0.08734
0.406886
0
0.171698
0.0414437
0.0396945
0.0321954
0.0244452
0.0138138
0.00934109
0.0050521
0.0114688
0.0211714
0.0225047
0.0241174
0.123023
0.0917449
0
0.144397
0.00338285
0
0.0118248
0.0239105
0.0388237
0.019271
0.033706
0.000752633
0
0
0.0117682
0.104435
0
0
0
0.0327459
0
0.0996392
0.0196073
0.0303807
0.0104914
0
0.0365615
0
0.0126143
0.0291252
0.0172278
0.0315264
0.0225009
0.00729762
0
0.0683963
0
0.141274
0
0.171775
0.0422109
0.0307908
0.00793737
0.0163788
0.015391
0
0.00863196
0.0152867
0
0
0
0.30416
0
0
0
0
0
0
0
0
0
0
0
0
0
0
0
0
0
0
0
0
0
0
0
0
0
0
0
0
0
0
0
0
0
0
0.00215684
0.00167464
0
0
0
0.000839068
0.00301443
0.00287295
0.00209582
0.00322946
0.00315759
0.00339444
0.00350132
0.00333746
0.00323087
0.00349377
0.00381157
0.00417584
0.00419447
0.00428928
0.00437969
0.00425726
0.00430388
0.00466328
0.00507146
0.00506104
0.00507989
0.00521519
0.00547469
0.00568939
0.00571215
0.00578498
0.00593181
0.00603043
0.00592144
0.00582025
0.00767062
0.00985337
0.00724539
0.00381868
0.00569372
0.0080523
0.00846851
0.0084402
0.00838259
0.00817064
0.00876657
0.00917221
0.00867937
0.00845161
0.00866654
0.00809697
0.00710772
0.00558886
0.00520763
0.00230857
0.00143685
0
0
0
0
0
0
0
0
0
0
0
0
0
0
0
0
0
0
0
0
0
0
0
0
0
0
0
0
0
0
0
0
0
0
0
0
0
0
0
0
0
0
0
0
0
0
0
0
0
0
0
0
0
0
0
0
0
0
0
0
0
0
0
0
0
0
0
0
0
0
0
0
0
0
0
0
0
0
0.0574299
0
0
0
0.011874
0.0219445
0
0
0
0
0.00955915
0
0
0
0.00416103
0
0
0
0
0
0
0
0
8.17517e-05
0
0
0
0
0
0
0
0
0
0
0
0.00180989
0.00447061
0
0
0
0
0
0
0
0
0
0
0.0369713
0.0821101
0.106437
0.0789117
0.0211911
0.00726938
0.00260217
0.000627961
0.000858996
0.000378297
0
6.37211e-05
0
0.000108316
0.000380471
0.000461336
0.000737476
0.000521553
0.000520331
0.000371268
0.000244652
0
0
0
7.87003e-06
0
0
0
4.97115e-05
2.37286e-05
0.0001597
0.000247313
0.000491736
0.000664694
0.000897538
0.000941172
0.00104387
0.000943388
0.000968544
0.000853694
0.000950477
0.000919703
0.0011114
0.00115438
0.00141777
0.00144859
0.00170444
0.001646
0.00181145
0.00162347
0.00170083
0.00140306
0.0014156
0.00104981
0.00103187
0.000599891
0.000593339
0.000203982
0.000205504
0
0
0
0
0
0
0
0
0
0
0
0
0
0
0
0
0
0
0
0
0
0
0
0
0
0.567587
0
0.838909
0
0
0.0170261
0.00684805
0
0
0
0
0
0
0
0
0
0.122847
0
0.052319
0
0.0704187
0
0.00867678
0.0192445
0.0316987
0.0165072
0.0286702
0
0
0
0.0416524
0.00142959
0
0.00276397
0.0547703
0
0.0365336
0
0
0
0.0168632
0.0410219
0.00772584
0
0
0.03259
0.016896
0.0344435
0.0247569
0.00885316
0
0.0174811
0
0.0671098
0.0993962
0.178788
0.138017
0.121068
0
0.0199403
0.0315435
0.0124672
0.0298198
0.00859067
0.00869755
0.00478546
0
0
0
0
0
0
0
0
0
0
0
0
0
0
0
0
0
0
0
0
0
0
0
0
0
0
0
0
0
0
0
0
0
0
0
0.000323545
0.00239816
0.00250778
0
0
0
0.00211738
0.00411858
0.0030241
0.00265773
0.00349817
0.00380177
0.00384801
0.00408255
0.00370542
0.00375824
0.00394467
0.00425862
0.00448993
0.0045712
0.00466585
0.00474725
0.00463896
0.00468776
0.0049927
0.00534683
0.00534063
0.00536526
0.0054902
0.00574791
0.00596921
0.00602368
0.00609266
0.00623672
0.00632695
0.00623193
0.00618621
0.00808242
0.010321
0.00763412
0.00419064
0.00611836
0.00865501
0.00917725
0.00928374
0.00928037
0.00914446
0.00997884
0.0104406
0.00997178
0.00964097
0.0102357
0.00965974
0.00839745
0.00675894
0.00589853
0.0025917
0.000862533
0
0
0
0
0
0
0
0
0
0
0
0
0
0
0
0
0
0
0
0
0
0
0
0
0
0
0
0
0
0
0
0
0
0
0
0
0
0
0
0
0
0
0
0
0
0
0
0
0
0
0
0
0
0
0
0
0
0.035518
0.0318525
0
0
0
0
0
0
0
0
0
0
0
0
0
0
0
0
0
0
0
0
0
0.550917
0.626489
0.13047
0.00468182
0.248888
0
0.000357273
0
0.01734
0.0112801
0
0
0.00653668
0
0
0
0
0
0
0
0
0
0
0
0
0
0
0
0
0
0
0
0
0
0
0
0
0
0
0
0
0
0
0
0
0.0382351
0.123636
0.125052
0.0846268
0.0186333
0.00273378
0.00169805
0.00114453
0.000282913
0.000568892
0.000743288
0.0011256
0.000829564
0.00108539
0.00112794
0.0012381
0.00130596
0.00116657
0.00106912
0.000788219
0.000588035
0.000388184
0.000232595
0.00027806
0.000184184
6.05833e-05
0.00025001
0.000134585
0.000195626
0.000103023
0.000244844
0.000335686
0.000571539
0.000733793
0.000948693
0.000963418
0.00103739
0.000913895
0.000911185
0.00077389
0.000844856
0.000808638
0.000988639
0.00104018
0.00130331
0.00135417
0.0016093
0.00157471
0.00174686
0.00158861
0.00167756
0.00141967
0.00144259
0.00112514
0.00115374
0.000834569
0.000917009
0.000630579
0.000751218
0.000520863
0.000688766
0.000513458
0.000759457
0.000657733
0.000897072
0.000705288
0.000933322
0.000845236
0.00104853
0.000845958
0.00104588
0.000894317
0.000848837
0.000791776
0.00138892
0.00157565
0.00154558
0.00317593
0.00019659
0.00340834
0.0267992
0
0
0
0
0
0.866914
0
0.0112995
0.0286427
0.0308509
0.0161197
0.0127803
0.00265958
0
0
0
0
0
0
0.0410161
0.100225
0
0
0.0473967
0.00838062
0.0108573
0.018835
0.0343566
0.01771
0.0307791
0
0
0
0
0
0.0378781
0.0655414
0
0
0.000259124
0.00874755
0.01345
0
0
0
0.0250555
0
0
0.0331137
0.0157729
0.0351206
0.0240278
0.00923672
0
0.00591032
0
0.0708543
0.0169534
0.164317
0.0390495
0.034662
0.0243294
0.0184636
0.0353318
0.00552732
0.00915866
0.0115179
0.00394467
0
0
0.0137165
0
0
0
0
0
0
0
0
0
0
0
0
0
0
0
0
0
0
0
0
0
0
0
0
0
0
0
0
0
0
0
0
0
5.39234e-05
0.00161492
0.00218813
0
5.03263e-05
0.0012557
0.00189655
0.00437354
0.00259707
0.00283321
0.00394542
0.00433702
0.00429411
0.00446824
0.00411921
0.00413125
0.0043721
0.00473779
0.0049658
0.00503745
0.00515357
0.00523251
0.00513821
0.00523405
0.00559403
0.00600971
0.00600388
0.00605103
0.00617683
0.00644969
0.00669565
0.00676458
0.00686904
0.00707949
0.00721957
0.00714231
0.00714082
0.00942483
0.0119624
0.00871096
0.00478375
0.00714243
0.0103005
0.011004
0.0113185
0.0114423
0.01148
0.0126904
0.0133971
0.0131507
0.0129541
0.0138335
0.0132875
0.0116433
0.00982731
0.00870074
0.00434044
0.000622908
0
0
0
0
0
0
0
0
0
0
0
0
0
0
0
0
0
0
0
0
0
0
0
0
0
0
0
0
0
0
0
0
0
0
0
0
0
0
0
0
0
0
0
0
0
0
0
0
0
0
0
0
0
0
0
0
0.427434
0.0980559
0.180734
0
0
0
0
0
0
0
0
0
0
0
0
0
0
0
0
0
0
0
0.417236
0
0
0
0.430403
0
0.183763
0.0665199
0.14325
0.045041
0
0.00843194
0.149413
0
0
0.0109412
0
0
0
0
0
0
0
0
0.00461221
0
0
0
0
0
0
0
0
0
0
0
0
0
0
0
0
0
0
0
0
0
0
0.0421086
0.146654
0.168664
0.0934039
0.0222261
0.00437885
0.00241125
0.0020856
0.00162522
0.0017522
0.00197496
0.00221308
0.00192443
0.00201552
0.00201085
0.00211005
0.00207341
0.0019747
0.00182469
0.00150274
0.00128968
0.00101111
0.0008854
0.000881736
0.000762978
0.000599316
0.000813985
0.000684676
0.000708734
0.000598181
0.000713224
0.000791973
0.00100951
0.00117513
0.00138214
0.00139942
0.00146385
0.00134003
0.0013223
0.0011797
0.00123082
0.00119004
0.00134732
0.00139547
0.00164086
0.00169464
0.0019315
0.00190363
0.00206028
0.00191292
0.0019836
0.00173809
0.00174427
0.00143768
0.00143912
0.00113179
0.00118568
0.000915672
0.00100295
0.000786877
0.000922148
0.000754328
0.000968377
0.000883058
0.00109097
0.000901043
0.00108642
0.000975406
0.00114047
0.000911077
0.00109414
0.000923169
0.000750624
0.000522041
0.00084
0.000573246
0.00292751
0.000622183
0
0.0065956
0.0167581
0.0207345
0.0153004
0
0.0292181
0
0.593614
0
0.00731717
0.0002556
0.0233886
0.0195319
0.0215168
0.0105509
0.00665141
0
0
0
0
0
0.0161175
0.0814589
0.00575215
0
0.0209415
0
0.00835149
0.0211722
0.0351826
0.0158117
0.0317021
0
0
0
0
0
0.134081
0.0258292
0.00699184
0.0379424
0.0321099
0
0.0131285
0.114683
0.0753674
0
0
0
0
0.0331688
0.0163954
0.0347271
0.0256582
0.00974892
0
0.0318979
0
0.11795
0
0.169529
0.137592
0.177188
0.00557752
0.0107926
0.0312246
0.0230114
0.0241789
0.0200635
0
0
0
0
0
0
0
0
0
0
0
0
0
0
0
0
0
0
0
0
0
0
0
0
0
0
0
0
0
0
0
0
0
0
0
0
0
0
0.000502837
0.000616877
0
0
0.00377866
0.00254694
0.00414248
0.00216824
0.00270825
0.00406723
0.004666
0.00467595
0.00466327
0.00442086
0.00436687
0.00463322
0.0051576
0.00524896
0.00547863
0.00557669
0.00569484
0.00559727
0.00568864
0.00607127
0.00652703
0.00653956
0.00660737
0.00678917
0.00713121
0.00742724
0.00753469
0.00766772
0.00790172
0.00809041
0.00807111
0.00816139
0.0108376
0.0138588
0.0101922
0.00572495
0.00858901
0.0122665
0.013396
0.0140523
0.0144739
0.0147581
0.016666
0.0179978
0.0179192
0.0183334
0.0198323
0.0194603
0.0179461
0.0157438
0.0145252
0.00773299
0.00483689
0
0
0
0
0
0
0
0
0
0
0
0
0
0
0
0
0
0
0
0
0
0
0
0
0
0
0
0
0
0
0
0
0
0
0
0
0
0
0
0
0
0
0
0
0
0
0
0
0
0
0
0
0
0
0
0
0
0.13807
0.230811
0
0
0
0
0
0
0
0
0
0
0
0
0
0
0
0
0
0
0
0
0
0
0
0
0.432465
0.278455
0.276063
0
0.330184
0.189276
0
0
0.547153
0.00376319
0.314581
0
0
0
0
0.270055
0.0174822
0
0
0.0259694
0.00248618
0.00478412
0.023246
0
0
0
0
0
0
0
0
0.0013365
0
0
0
0
0
0
0
0
0
0
0.0510729
0.196822
0.215094
0.129055
0.0322174
0.00408466
0.00349243
0.0027814
0.00183903
0.00256639
0.00301827
0.00336935
0.00291127
0.00296859
0.00284325
0.00287155
0.0028891
0.00266959
0.00257224
0.00223878
0.00198383
0.00169587
0.00155929
0.00152835
0.00138648
0.00116144
0.00138731
0.00126055
0.0012537
0.00112564
0.00121484
0.00129156
0.00148596
0.00164131
0.00183662
0.00184781
0.00190078
0.00176692
0.00174084
0.00159551
0.00163506
0.00159122
0.00173579
0.00177824
0.00200898
0.00206052
0.00227784
0.00225302
0.00238773
0.0022466
0.00229606
0.00205905
0.00203926
0.00175204
0.00173147
0.00144799
0.00147152
0.00122493
0.00128338
0.00109856
0.00120479
0.00107438
0.00125394
0.00121013
0.00138685
0.00123926
0.00140428
0.00133819
0.00150823
0.00137393
0.00156666
0.00157805
0.00173247
0.00165068
0.00146301
0.00152156
0.00314968
0
0
0.00893932
0.0124073
0.0131955
0.015457
0
0
0
0.305046
0
0
0
0.0217849
0.0189901
0.0224747
0.0130461
0.00878002
0.00119544
0
0
0
0
0
0.0316335
0.0310397
0
0.00690359
0
0.00814064
0.0217133
0.0346428
0.0177617
0.0311632
0.000992349
0
0
0.121439
0.00506532
0
0.0348499
0
0.0289964
0
0
0.003889
0.0414427
0
0.0173805
0
0
0
0.0339856
0.0161348
0.0354265
0.0243763
0.00527687
0
0.019022
0
0.0927937
0.0582531
0.164305
0.0881535
0.147804
0
0.0121578
0.03108
0.0115733
0
0.00643955
0
0
0
0
0
0
0
0
0
0
0
0
0
0
0
0
0
0
0
0
0
0
0
0
0
0
0
0
0
0
0
0
0
0
0
0
0
0
0
0
0
0.001632
0.0040133
0.00271238
0.00302914
0.00212711
0.00312357
0.00410114
0.00496406
0.00485287
0.00498275
0.00459959
0.00465932
0.00491218
0.00538195
0.00561266
0.00575866
0.00592683
0.00603205
0.00599557
0.00615153
0.00659378
0.00711387
0.00714877
0.00726582
0.00744842
0.00782895
0.00818452
0.00834798
0.00856865
0.00893843
0.00923941
0.00930397
0.00952861
0.0127467
0.0162126
0.0119794
0.00700348
0.0106372
0.0154219
0.0171021
0.0184553
0.0194682
0.0205572
0.0238435
0.0263506
0.0276925
0.028797
0.0334552
0.0344228
0.0332201
0.0325601
0.0330409
0.0288514
0.00598958
0
0
0
0
0
0
0
0
0
0
0
0
0
0
0
0
0
0
0
0
0
0
0
0
0
0
0
0
0
0
0
0
0
0
0
0
0
0
0
0
0
0
0
0
0
0
0
0
0
0
0
0
0
0
0
0
0.802826
0.112229
0.147858
0
0
0
0
0
0
0
0
0
0
0
0
0
0
0
0
0
0
0
0
0
0
0.440941
0
0.388558
0
0.286801
0.00685111
0
0.108352
0
0
0
0.216447
0.107085
0.361971
0
0
0
0
0
0
0.240685
0.137461
0.0295647
0.075487
0
0.0997476
0
0
0
0
0
0
0
0
0
0.00612266
0
0
0
0
0
0
0
0
0.045625
0.254351
0.278081
0.160446
0.0319471
0.00531917
0.00331443
0.00445435
0.00285525
0.00339077
0.00372292
0.00396748
0.00368789
0.00373207
0.00362086
0.00365299
0.00356871
0.00339473
0.00326926
0.00290481
0.00266643
0.00231592
0.00223423
0.00215546
0.00201253
0.00174664
0.00199617
0.0018611
0.00181723
0.00167325
0.00172835
0.00178509
0.00195108
0.00210273
0.00228869
0.00230563
0.0023556
0.00223133
0.00219072
0.00204829
0.00206591
0.0020165
0.00213153
0.00216862
0.00236704
0.00241654
0.00261011
0.00258887
0.00270928
0.00258115
0.00261595
0.0023993
0.00236922
0.00209902
0.00206322
0.00179304
0.00179963
0.00156665
0.00160771
0.00143249
0.00152392
0.0013928
0.00155533
0.00151815
0.00168481
0.00154236
0.00167895
0.00159354
0.00175187
0.00157112
0.00168971
0.00161344
0.00190775
0.00164949
0.00146659
0.00233268
0.00394402
0.00239359
0.000575241
0
0
0.017355
0.0133442
0
0
0
0.0690086
0.0326869
0.0746898
0
0.0210446
0.024051
0.0283205
0.0202636
0.0140877
0.00610108
0.00193333
0
0
0
0
0.0373408
0.0692833
0
0.0407762
0
0.00615321
0.0189352
0.0353726
0.015342
0.0319766
0
0
0.0438293
0
0
0.0720627
0.0252175
0.0523943
0.0144991
0
0.00107925
0.041956
0.0505584
0.0749685
0.00790767
0.0277045
0
0
0.0338404
0.0158017
0.035356
0.025467
0.00739626
0
0.0120529
0
0.0404815
0.10616
0.166443
0.144945
0.249188
0.142818
0.012609
0.0204658
0.0303646
0.00671948
0.0238032
0
0
0
0
0
0
0
0
0
0
0
0
0
0
0
0
0
0
0
0
0
0
0
0
0
0
0
0
0
0
0
0
0
0
0
0
0
0
0
0
0
0.00209337
0.00758032
0.00271624
0.00134415
0.00192772
0.00285197
0.00442488
0.00520873
0.00513614
0.00494259
0.00493409
0.00476242
0.00510338
0.00570358
0.00590678
0.00617463
0.00633856
0.00652041
0.00647973
0.00664301
0.00712617
0.00771463
0.00779198
0.00797048
0.00827296
0.00878413
0.00924458
0.00951551
0.00983533
0.0102977
0.0107523
0.0109983
0.0114834
0.0155709
0.0201264
0.0152751
0.00951752
0.0144633
0.0208282
0.0241807
0.0274544
0.0306355
0.0344891
0.0427554
0.0531428
0.0579324
0.0727335
0.098572
0.0934922
0.133411
0.121882
0.215465
0
0.216661
0
0
0
0
0
0
0
0
0
0
0
0
0
0
0
0
0
0
0
0
0
0
0
0
0
0
0
0
0
0
0
0
0
0
0
0
0
0
0
0
0
0
0
0
0
0
0
0
0
0
0
0
0
0
0
0.0194403
0
0.342756
0.601633
0.294635
0
0
0
0
0
0
0
0
0
0
0
0
0
0
0
0
0
0
0
0
0
0
0
0
0
0.0901242
0.584501
0
0
0
0.0953755
0
0
0
0.13671
0.29573
0
0
0.263416
0
0
0
0.258457
0.321152
0.267434
0
0.0663968
0
0
0
0
0
0
0.0506698
0
0
0
0
0
0
0
0
0
0
0
0.0674691
0.361756
0.395045
0.217149
0.0713958
0.0057907
0.00361272
0.00411402
0.00407549
0.00446415
0.00435277
0.00457932
0.00434427
0.00445952
0.00434341
0.00428317
0.00427825
0.0040012
0.00391195
0.00356801
0.00328942
0.00293905
0.00288268
0.00277827
0.0026408
0.0023208
0.00257983
0.00245934
0.00238299
0.00222477
0.00224268
0.00228482
0.00241901
0.00255111
0.00272526
0.00274059
0.00278815
0.00266775
0.00263195
0.00249023
0.00250238
0.00244762
0.00254322
0.00256543
0.0027429
0.00277072
0.00294869
0.00291907
0.00302292
0.002898
0.00292342
0.00271524
0.00267983
0.0024266
0.00238395
0.0021396
0.00213055
0.00192113
0.00195013
0.0017926
0.00187391
0.0017588
0.00190832
0.0018933
0.00205502
0.00194679
0.00206779
0.00201103
0.00218074
0.00203959
0.00210767
0.00206815
0.00231225
0.00211524
0.00221073
0.00280505
0.00337117
0.00305094
0.00288992
0
0
0.0135493
0.0177277
0.00303367
0
0
0.00797081
0
0.319399
0
0.0170407
0.0223572
0.0290384
0.0225184
0.0163424
0.00796474
0.0032965
0.000291337
0
0
0
0.0728972
0.120366
0
0.00977037
0
0.00470489
0.0182915
0.0350004
0.0171689
0.031264
0.00633721
0
0
0.0329754
0
0
0.0320662
0
0
0.115073
0
0
0
0
0.0103607
0.00286116
0
0
0.0343771
0.0162894
0.0361716
0.0247413
0.00577861
0
0.0451731
0
0.038085
0.0454705
0.16402
0.121962
0.221283
0
0
0.016736
0.0319858
0
0.00774981
0
0
0
0
0
0
0
0
0
0
0
0
0
0
0
0
0
0
0
0
0
0
0
0
0
0
0
0
0
0
0
0
0
0
0
0
0
0
0
0
0
0.00364887
0.00607614
0.00308105
0.000171267
0.00180607
0.00332429
0.00455055
0.00526648
0.00539576
0.00524573
0.00505267
0.00512612
0.00540837
0.00597553
0.00631862
0.00652039
0.00681654
0.00697946
0.00705181
0.00732948
0.00791438
0.00861775
0.00877671
0.00907243
0.00943181
0.0100627
0.0107096
0.0111663
0.0117462
0.0125763
0.0133799
0.0139758
0.015001
0.0206553
0.0270548
0.0214559
0.0147818
0.0231131
0.036563
0.0438081
0.0537443
0.0666984
0.0863207
0.123923
0.151048
0.191548
0.23508
0.353074
0.270645
0.379606
0.264168
0.435488
0.0440989
0.254168
0
0
0
0
0
0
0
0
0
0
0
0
0
0
0
0
0
0
0
0
0
0
0
0
0
0
0
0
0
0
0
0
0
0
0
0
0
0
0
0
0
0
0
0
0
0
0
0
0
0
0
0
0
0
0
0
0.397236
0.592104
0.23948
0
0
0
0
0
0
0
0
0
0
0
0
0
0
0
0
0
0
0
0
0
0
0
0
0
0.160575
0
0
0.491053
0
0
0
0.101329
0.274037
0
0
0
0
0
0
0
0
0
0.0469783
0.103108
0.17438
0.179959
0.153089
0
0
0
0
0
0
0.0702442
0.162372
0
0
0
0
0
0
0
0
0
0
0.126853
0.527518
0.555278
0.312767
0.088231
0.00799596
0.00356183
0.00470117
0.00400204
0.00472403
0.00477706
0.00497329
0.00489228
0.00506604
0.00497815
0.00495369
0.00484524
0.00460674
0.0045268
0.00412862
0.00389339
0.00349936
0.0034963
0.0033595
0.00324012
0.00288027
0.00316021
0.00303307
0.00292838
0.00275746
0.0027393
0.00275586
0.00286021
0.00298223
0.00314291
0.00316914
0.00321827
0.00311078
0.00307049
0.00293992
0.00293253
0.00287438
0.00293855
0.00294848
0.00308954
0.00311409
0.00325683
0.00323258
0.003317
0.00320741
0.00322249
0.00304359
0.0029987
0.00277402
0.00271953
0.00249827
0.00248101
0.00228428
0.00230182
0.00216038
0.0022267
0.00211898
0.00224783
0.00223975
0.00239709
0.00229887
0.00239845
0.00233093
0.00249102
0.00235963
0.00240651
0.00235012
0.00253589
0.00229723
0.00240209
0.0022308
0.00253165
0.00463299
0.00575687
0.0011232
0
0.00167254
0.00776007
0.00885266
0.000163971
0
0
0
0.129852
0.202769
0.0530749
0.0230297
0.0323526
0.0284252
0.021519
0.0126217
0.00668806
0.00259948
0.00170365
0
0
0.0226619
0.13939
0
0.0626313
0
0.00698125
0.0180182
0.0357326
0.0155588
0.0322927
0
0
0.0104156
0.0156948
0.0835535
0
0.0193915
0
0.0300537
0
0.0243294
0.0333617
0.0610679
0.0401909
0.0252174
0
0
0.00171472
0.0337264
0.0162552
0.0361442
0.0240361
0.00520886
0
0.00271974
0.0609959
0.00589745
0.0656907
0.165202
0.140435
0.289897
0.160352
0.139673
0.00154525
0.0279994
0.00130361
0.00433709
0
0
0
0
0
0
0
0
0
0
0
0
0
0
0
0
0
0
0
0
0
0
0
0
0
0
0
0.0010406
0.000208304
0
0
0
0
0
0
0
0
0
0
0
0
0.00679869
0.00657772
0.00345849
0
0.00110438
0.003658
0.00475731
0.00563356
0.00550391
0.00547097
0.00531024
0.0054583
0.00577132
0.00634121
0.00694083
0.00718273
0.0075362
0.0078396
0.00794394
0.00827872
0.00898135
0.00987241
0.0101739
0.0106714
0.0113436
0.0123596
0.0133657
0.0142294
0.0152964
0.0166626
0.01827
0.0199711
0.0226388
0.0343586
0.0485657
0.0415245
0.0320735
0.0612111
0.0830195
0.135721
0.18144
0.244162
0.326827
0.446109
0.427092
0.476946
0.482079
0.511195
0.436818
0.431651
0.307191
0.40953
0.127047
0.269636
0
0
0
0
0
0
0
0
0
0
0
0
0
0
0
0
0
0
0
0
0
0
0
0
0
0
0
0
0
0
0
0
0
0
0
0
0
0
0
0
0
0
0
0
0
0
0
0
0
0
0
0
0
0
0
0
0.128176
0.471153
0.520769
0.43193
0
0
0
0
0
0
0
0
0
0
0
0
0
0
0
0
0
0
0
0
0
0
0
0
0
0
0
0
0.45125
0
0
0
0
0.344299
0.30216
0
0
0
0
0
0.0998664
0.0809462
0.159517
0.114998
0
0.131155
0.185938
0
0
0
0
0
0
0
0.0885273
0
0
0
0
0
0
0
0
0
0
0.709384
0.958177
0.715583
0.445195
0.161512
0.0096512
0.00234112
0.005008
0.0055077
0.00543671
0.00502574
0.00530504
0.00538797
0.00558753
0.00559215
0.00543101
0.00543869
0.00514301
0.00504666
0.004718
0.00442357
0.00403583
0.00408943
0.00392897
0.00382907
0.00343609
0.00371025
0.00360126
0.00346499
0.00328203
0.00322024
0.00321441
0.0032828
0.00338056
0.00353024
0.00355739
0.0036117
0.00352032
0.00349053
0.00336924
0.00336292
0.00329132
0.00333999
0.00332345
0.0034392
0.00343024
0.00355834
0.00351869
0.00359529
0.00348226
0.00349837
0.00332549
0.0032971
0.00308064
0.00304337
0.00283263
0.00282186
0.00264169
0.00266404
0.00252816
0.00259457
0.00249518
0.00261422
0.00260968
0.00277242
0.00269594
0.00279114
0.00272222
0.00288503
0.00278075
0.00283911
0.00277658
0.00293257
0.00281535
0.00293784
0.00249233
0.00261087
0.00411038
0.00514898
0.00278702
0.000610969
0
0.00295125
0.00675515
0.00534552
0
0
0
0.00365748
0
0.0294013
0.0279869
0.0368389
0.0308496
0.0243002
0.0143481
0.00808116
0.00292474
0.00308298
0
0
0
0.183046
0
0.0294186
0
0.00538167
0.0181783
0.0358117
0.0160744
0.0321668
0
0
0.0448651
0
0
0.0349209
0
0.0511004
0.0482256
0
0
0.0509266
0.046207
0.0197453
0.0410707
0
0
0
0.0345399
0.016066
0.0368291
0.0246455
0.00495764
0
0
0
0.100409
0
0.161077
0.133258
0.258176
0.0739044
0.0632855
0.0121395
0.0108458
0
0
0
0
0
0
0
0
0
0
0
0
0
0
0
0
0
0
0
0
0
0
0
0
0
0
0
0
0
0.00260465
0.00169193
0
0
0
0
0
0
0.000307577
0
0
0
0
0.00109611
0.00518016
0.00569449
0.00327002
0
0.000754569
0.00368437
0.0053046
0.00620342
0.00593948
0.0058504
0.00572403
0.0060477
0.00642303
0.00715872
0.00770738
0.0080683
0.00861226
0.009004
0.00932776
0.00996714
0.0109697
0.0122202
0.0128475
0.0138091
0.014934
0.0166009
0.0186702
0.0207514
0.0236467
0.0277659
0.0331794
0.0394206
0.051251
0.0855216
0.126238
0.113815
0.118898
0.213095
0.245329
0.353068
0.409259
0.442734
0.471863
0.509631
0.476572
0.471511
0.463624
0.491181
0.402108
0.404863
0.330817
0.372729
0.132097
0.264144
0
0
0
0
0
0
0
0
0
0
0
0
0
0
0
0
0
0
0
0
0
0
0
0
0
0
0
0
0
0
0
0
0
0
0
0
0
0
0
0
0
0
0
0
0
0
0
0
0
0
0
0
0
0
0
0
0.383294
0.463471
0.320272
0
0
0
0
0
0
0
0
0
0
0
0
0
0
0
0
0
0
0
0
0
0
0
0
0.274227
0.335684
0.0943606
0.215221
0
0
0.276798
0
0
0
0
0.189071
0.555965
0
0
0
0.169959
0.520522
0.139942
0.305826
0.0146283
0.0909226
0.163259
0.100702
0
0
0
0
0
0
0
0.110909
0.212578
0
0
0
0
0
0
0
0
0
0.514577
0.85577
0.815361
0.58803
0.229656
0.021081
0.00339065
0.00280414
0.00511858
0.00561163
0.00549524
0.0057151
0.00576946
0.00605046
0.00604987
0.00598063
0.00587717
0.00561459
0.005597
0.00516253
0.00494843
0.0045346
0.00462232
0.00445201
0.0043837
0.0039507
0.0042397
0.00412745
0.00397139
0.00377466
0.00367873
0.00364313
0.00368465
0.00376201
0.00389956
0.00393699
0.00399067
0.00392528
0.00389482
0.00378769
0.00376017
0.00369734
0.00370849
0.00367973
0.00375441
0.00374511
0.00382725
0.00379444
0.00383747
0.00374984
0.0037487
0.00361294
0.00357727
0.00339814
0.00334964
0.00317996
0.00315057
0.00300302
0.00300556
0.00289694
0.00294213
0.00286205
0.00294991
0.0029604
0.00311039
0.00306603
0.00313978
0.00307462
0.00321449
0.00312761
0.00317223
0.00309852
0.00325262
0.00325799
0.003405
0.00299419
0.0027799
0.00306533
0.00401965
0.00445382
0.00332171
0.000802239
0.00158775
0.00366478
0.00466436
0.00157908
0
0
0.000153929
0
0.122995
0.0544834
0.0443686
0.0366033
0.0308754
0.0193323
0.011457
0.00528551
0.005234
0
0
0
0.0632104
0.108651
0
0
0.00419535
0.018683
0.0363542
0.0152165
0.0330981
0
0
0.00654017
0
0.0160971
0
0.00827345
0
0.0105804
0.0256506
0
0
0
0.00886024
0
0.0168612
0
0
0.0336546
0.0160206
0.0366229
0.024831
0.0055176
0
0.0199483
0
0.17357
0
0.157069
0.138004
0.253919
0.179435
0.229377
0.0242471
0.0261255
0.00912437
0
0
0
0
0
0
0
0
0
0
0
0
0
0
0
0
0
0
0
0
0
0
0
0
0
0
0
0
0
0.00229912
0
0
0
0
0
0
0
0
0
0
0
0
0.00670464
0.00304089
0.00391871
0.000385933
0
0.00438217
0.0057872
0.00679896
0.00665516
0.00634133
0.00645663
0.00702382
0.00750438
0.00839725
0.00933606
0.00993041
0.0107136
0.0115258
0.0121167
0.0131125
0.0147686
0.0169842
0.0186106
0.0209651
0.0244037
0.0293112
0.0354415
0.0430203
0.0549178
0.0691534
0.0914153
0.118338
0.164218
0.273035
0.345831
0.253297
0.258166
0.348135
0.378391
0.453167
0.465531
0.480408
0.476815
0.515303
0.489559
0.487483
0.473464
0.506438
0.387114
0.391256
0.389549
0.34311
0.128287
0.251383
0
0
0
0
0
0
0
0
0
0
0
0
0
0
0
0
0
0
0
0
0
0
0
0
0
0
0
0
0
0
0
0
0
0
0
0
0
0
0
0
0
0
0
0
0
0
0
0
0
0
0
0
0
0
0
0.027594
0.278993
0.586224
0.59209
0.367763
0
0
0
0
0
0
0
0
0
0
0
0
0
0
0
0
0
0
0
0
0
0
0
0
0
0
0.280941
0.500285
0
0
0.127586
0
0
0
0
0
0.422028
0
0
0
0
0.0783656
0
0
0.0867938
0.209339
0.126708
0
0
0
0
0
0
0.0180345
0
0.071643
0
0
0
0
0
0
0
0
0
0.440194
0.841604
0.946735
0.741508
0.327773
0.0387728
0.00408511
0.00416175
0.00380147
0.00499892
0.00541742
0.00591815
0.0061632
0.00632451
0.00651546
0.00625861
0.00633164
0.00607051
0.00597353
0.00569259
0.00538534
0.00498376
0.005159
0.00496039
0.00491442
0.00448034
0.00473847
0.00464221
0.00446852
0.00425574
0.00411677
0.00405838
0.00406641
0.00411585
0.00423986
0.00428023
0.00435062
0.00429668
0.00428201
0.00418566
0.00416371
0.00408208
0.00407943
0.00402324
0.00406921
0.00402265
0.0040915
0.00403366
0.00408118
0.00397971
0.00399234
0.00385795
0.00384978
0.00367295
0.00365644
0.00348142
0.00347642
0.00333409
0.00334861
0.00324237
0.00329237
0.00320382
0.00329934
0.00328726
0.003446
0.00341101
0.00349074
0.00341313
0.00354507
0.00345205
0.00349137
0.00337833
0.00351239
0.00352475
0.00368557
0.00353018
0.00338057
0.00310681
0.0035636
0.00454601
0.00420778
0.00231464
0.00157052
0.00250737
0.00347564
0.00250332
0.00112034
0
0.00047096
0.00231015
0.0148376
0.0382861
0.0421386
0.026407
0.0356865
0.0223128
0.0135974
0.00601536
0.00665509
0
0
0
0
0.112867
0
0
0.0044522
0.0183545
0.036444
0.0159012
0.0322154
0
0
0
0.164367
0
0.0277286
0.0442773
0.0553617
0.01268
0.0137153
0
0.0504504
0.0254821
0.0153307
0.0226504
0.00385763
0
0
0.0329561
0.0162772
0.0369551
0.0200537
0.0026099
0
0.0377509
0
0.0625469
0.0884309
0.153544
0.137762
0.247812
0.14034
0.23375
0
0
0.006536
0
0
0
0
0
0
0
0
0
0
0
0
0
0
0
0
0
0
0
0
0
0
0
0
0
0
0
0
0
0
0
0
0
0
0
0
0
0
0
0
0
0
0.00243948
0.00447811
0.00399718
0.00149174
0.000362249
0.00437949
0.00678086
0.00824144
0.00791358
0.00798188
0.00795138
0.0090254
0.0098738
0.0112423
0.0124342
0.0135865
0.0153388
0.0170397
0.0190708
0.0222116
0.0271778
0.0328495
0.0386149
0.0494717
0.0596904
0.0804383
0.102599
0.1358
0.17365
0.213459
0.246408
0.276528
0.306756
0.423343
0.429134
0.296706
0.300095
0.376862
0.388254
0.447928
0.453806
0.458955
0.475824
0.514255
0.46473
0.467454
0.473628
0.480038
0.419991
0.346023
0.360774
0.310791
0.164253
0.196407
0
0
0
0
0
0
0
0
0
0
0
0
0
0
0
0
0
0
0
0
0
0
0
0
0
0
0
0
0
0
0
0
0
0
0
0
0
0
0
0
0
0
0
0
0
0
0
0
0
0
0
0
0
0
0
0.277668
0.549246
0.645121
0.364502
0
0.0235057
0
0
0
0
0
0
0
0
0
0
0
0
0
0
0
0
0
0
0
0
0
0
0
0
0
0
0
0.167954
0
0
0
0
0.170827
0
0
0.0278597
0
0
0.2888
0
0
0
0
0
0.100597
0.0925407
0
0
0
0
0
0
0.203179
0
0
0
0
0
0
0
0
0
0
0
0.36374
0.827118
0.983864
0.834688
0.456415
0.106249
0
0.00239734
0.00451751
0.00491058
0.00546156
0.00600481
0.00619251
0.00656408
0.00670666
0.00664872
0.00659964
0.00636868
0.00645902
0.00599515
0.00582706
0.00542336
0.00559454
0.00541995
0.00541672
0.00493951
0.00521416
0.00511516
0.00492795
0.00469799
0.00453836
0.00444614
0.00442264
0.0044604
0.00457201
0.00461099
0.00468174
0.00465642
0.00464716
0.00456999
0.00453444
0.00446077
0.00442306
0.00436118
0.00435684
0.00431031
0.00433066
0.00427902
0.00428987
0.0042165
0.00420391
0.00411137
0.00408723