/*--------------------------------*- C++ -*----------------------------------*\
| =========                 |                                                 |
| \\      /  F ield         | OpenFOAM: The Open Source CFD Toolbox           |
|  \\    /   O peration     | Version:  v2006                                 |
|   \\  /    A nd           | Website:  www.openfoam.com                      |
|    \\/     M anipulation  |                                                 |
\*---------------------------------------------------------------------------*/
FoamFile
{
    version     2.0;
    format      ascii;
    class       volScalarField;
    location    "185";
    object      nut;
}
// * * * * * * * * * * * * * * * * * * * * * * * * * * * * * * * * * * * * * //

dimensions      [0 2 -1 0 0 0 0];


internalField   nonuniform List<scalar> 
93840
(
3.57637e-08
3.95113e-08
4.81107e-08
4.29508e-08
3.61097e-08
4.21469e-08
4.07484e-08
3.56539e-08
4.04239e-08
3.02688e-08
1.75409e-08
4.70852e-08
1.49162e-07
3.31966e-08
6.20666e-09
3.15852e-09
2.18612e-09
3.85613e-08
2.92374e-07
2.67692e-06
1.16941e-05
3.33395e-05
5.34504e-05
5.4842e-05
4.8637e-05
4.20562e-05
3.02591e-05
2.40924e-05
1.9397e-05
1.77146e-05
1.60605e-05
1.49086e-05
1.525e-05
1.44876e-05
1.45501e-05
1.42792e-05
1.41334e-05
1.40161e-05
1.38242e-05
1.37495e-05
1.3576e-05
1.35167e-05
1.33587e-05
1.32943e-05
1.31436e-05
1.30703e-05
1.29284e-05
1.28645e-05
1.27362e-05
1.266e-05
1.25455e-05
1.24793e-05
1.2346e-05
1.22616e-05
1.21944e-05
1.21791e-05
1.2089e-05
1.20149e-05
1.18852e-05
1.18108e-05
1.17551e-05
1.16813e-05
1.15986e-05
1.15731e-05
1.15291e-05
1.148e-05
1.14584e-05
1.14413e-05
1.14104e-05
1.13842e-05
1.13804e-05
1.13606e-05
1.13681e-05
1.13703e-05
1.13777e-05
1.13841e-05
1.14086e-05
1.14202e-05
1.14634e-05
1.14874e-05
1.15187e-05
1.15454e-05
1.15882e-05
1.16452e-05
1.17114e-05
1.17675e-05
1.18395e-05
1.19019e-05
1.19686e-05
1.20419e-05
1.21467e-05
1.22611e-05
1.23713e-05
1.24963e-05
1.26215e-05
1.27678e-05
1.29096e-05
1.30591e-05
1.32146e-05
1.33885e-05
1.35676e-05
1.37408e-05
1.39286e-05
1.42978e-05
1.46626e-05
1.47467e-05
1.48211e-05
1.51065e-05
1.54149e-05
1.57273e-05
1.60348e-05
1.63474e-05
1.66544e-05
1.70307e-05
1.7366e-05
1.77075e-05
1.80256e-05
1.8397e-05
1.86959e-05
1.89992e-05
1.92376e-05
1.95187e-05
1.96527e-05
1.98384e-05
1.98251e-05
1.98014e-05
1.99102e-05
1.963e-05
1.97383e-05
1.96255e-05
1.94713e-05
1.94168e-05
1.92227e-05
1.91854e-05
1.90747e-05
1.89527e-05
1.88377e-05
1.87388e-05
1.86522e-05
1.85887e-05
1.85146e-05
1.84615e-05
1.83436e-05
1.82777e-05
1.8205e-05
1.81619e-05
1.80793e-05
1.80217e-05
1.79007e-05
1.7807e-05
1.77037e-05
1.7601e-05
1.74603e-05
1.73212e-05
1.71658e-05
1.70084e-05
1.6813e-05
1.66124e-05
1.6383e-05
1.61947e-05
1.60052e-05
1.57657e-05
1.54333e-05
1.51408e-05
1.48279e-05
1.43465e-05
1.34258e-05
1.13997e-05
6.99185e-06
1.88768e-06
5.53504e-06
9.46574e-06
3.43857e-06
2.25265e-11
2.21075e-08
2.10548e-07
1.96039e-08
7.52552e-11
1.21104e-09
6.45693e-10
4.96862e-09
1.72786e-13
2.10966e-11
1.85506e-13
9.41516e-09
1.02944e-09
4.96848e-11
5.51669e-07
2.33566e-07
8.98054e-09
3.67697e-06
5.78357e-06
5.75346e-08
5.31102e-06
1.97547e-05
2.73006e-05
2.96689e-05
3.08187e-05
3.15017e-05
3.18818e-05
3.19533e-05
3.19324e-05
3.17971e-05
3.17623e-05
3.15764e-05
3.15306e-05
3.13377e-05
3.12796e-05
3.10399e-05
3.0957e-05
3.07511e-05
3.06648e-05
3.04544e-05
3.03765e-05
3.01884e-05
3.01143e-05
2.98735e-05
2.97793e-05
2.95314e-05
2.94494e-05
2.939e-05
2.9354e-05
2.90917e-05
2.90421e-05
2.88215e-05
2.87347e-05
2.84874e-05
2.84317e-05
2.81628e-05
2.80848e-05
2.79012e-05
2.7993e-05
2.78179e-05
2.79506e-05
2.774e-05
2.77876e-05
2.77049e-05
2.75645e-05
2.75377e-05
2.73248e-05
2.74468e-05
2.72285e-05
2.73539e-05
2.72511e-05
2.73611e-05
2.71487e-05
2.74059e-05
2.71548e-05
2.7391e-05
2.60948e-05
2.27364e-05
1.11963e-05
4.26222e-06
5.37615e-06
6.23305e-06
6.29015e-06
6.58284e-06
6.37232e-06
6.49863e-06
6.31283e-06
6.33143e-06
6.16083e-06
6.14325e-06
6.0368e-06
6.01468e-06
5.95353e-06
5.91123e-06
5.8556e-06
5.83159e-06
5.81647e-06
5.73507e-06
5.67286e-06
5.61817e-06
5.61558e-06
5.55823e-06
5.52986e-06
5.4748e-06
5.46972e-06
5.42979e-06
5.42632e-06
5.39099e-06
5.38851e-06
5.35928e-06
5.359e-06
5.33548e-06
5.33722e-06
5.31684e-06
5.31901e-06
5.30063e-06
5.30265e-06
5.28497e-06
5.28907e-06
5.27131e-06
5.27626e-06
5.25847e-06
5.26193e-06
5.24197e-06
5.24515e-06
5.22274e-06
5.22345e-06
5.19953e-06
5.19903e-06
5.17351e-06
5.16925e-06
5.13766e-06
5.12931e-06
5.09743e-06
5.08832e-06
5.05488e-06
5.04168e-06
5.00535e-06
4.98437e-06
4.94488e-06
4.92338e-06
4.88349e-06
4.85846e-06
4.81209e-06
4.77386e-06
4.71118e-06
4.65665e-06
4.57775e-06
4.50109e-06
4.39651e-06
4.27997e-06
4.14258e-06
4.01464e-06
3.97165e-06
4.08343e-06
4.21208e-06
4.33577e-06
4.48736e-06
4.54761e-06
5.00791e-06
5.84052e-06
6.78382e-06
7.36744e-06
1.66608e-05
3.04802e-05
4.2023e-05
5.1138e-05
5.90045e-05
6.3024e-05
6.84828e-05
6.92781e-05
6.81266e-05
6.09656e-05
3.86928e-05
1.47912e-05
3.80599e-06
5.34057e-07
2.56675e-08
1.0255e-09
2.69572e-09
5.5608e-09
3.08915e-08
1.47272e-07
4.73015e-08
1.7982e-08
3.00259e-08
4.04536e-08
3.50052e-08
3.85397e-08
4.11437e-08
3.57917e-08
4.22996e-08
4.76148e-08
3.94399e-08
3.54329e-08
3.55524e-08
3.94336e-08
4.77579e-08
4.38727e-08
3.64673e-08
4.11346e-08
3.85519e-08
3.57972e-08
4.09058e-08
3.04201e-08
1.72367e-08
4.60976e-08
1.49989e-07
3.36443e-08
5.78734e-09
2.287e-09
5.69774e-10
1.81133e-08
2.53051e-07
2.01377e-06
8.54717e-06
2.74281e-05
4.95381e-05
5.47765e-05
5.06041e-05
4.85178e-05
4.17253e-05
3.52968e-05
2.92034e-05
2.44503e-05
2.14656e-05
1.93767e-05
1.86101e-05
1.82793e-05
1.88648e-05
1.79213e-05
1.89305e-05
1.77796e-05
1.88992e-05
1.77203e-05
1.88073e-05
1.77032e-05
1.87156e-05
1.7719e-05
1.86246e-05
1.77501e-05
1.85258e-05
1.77687e-05
1.84374e-05
1.77999e-05
1.83503e-05
1.78255e-05
1.82929e-05
1.78239e-05
1.81746e-05
1.78279e-05
1.81922e-05
1.79056e-05
1.81715e-05
1.79005e-05
1.81202e-05
1.79413e-05
1.80961e-05
1.79321e-05
1.80946e-05
1.79779e-05
1.80871e-05
1.80182e-05
1.81205e-05
1.80675e-05
1.81538e-05
1.81341e-05
1.81948e-05
1.81975e-05
1.82621e-05
1.82694e-05
1.83313e-05
1.83512e-05
1.84112e-05
1.84542e-05
1.85137e-05
1.85529e-05
1.8605e-05
1.86531e-05
1.87197e-05
1.87776e-05
1.88369e-05
1.89016e-05
1.89586e-05
1.90067e-05
1.90633e-05
1.91251e-05
1.91893e-05
1.92453e-05
1.93031e-05
1.93577e-05
1.94138e-05
1.94667e-05
1.95124e-05
1.9562e-05
1.96071e-05
1.96425e-05
1.96465e-05
1.96901e-05
1.97851e-05
1.98395e-05
1.98174e-05
1.98076e-05
1.98202e-05
1.98242e-05
1.98183e-05
1.98095e-05
1.9788e-05
1.97658e-05
1.97225e-05
1.96889e-05
1.96312e-05
1.95741e-05
1.94712e-05
1.93856e-05
1.92548e-05
1.91367e-05
1.89509e-05
1.88104e-05
1.8598e-05
1.8449e-05
1.82164e-05
1.80418e-05
1.78487e-05
1.76182e-05
1.7441e-05
1.72147e-05
1.70247e-05
1.68288e-05
1.66045e-05
1.64141e-05
1.62059e-05
1.60194e-05
1.58133e-05
1.56154e-05
1.54024e-05
1.52102e-05
1.49923e-05
1.47944e-05
1.45657e-05
1.436e-05
1.4105e-05
1.38516e-05
1.3585e-05
1.33584e-05
1.30607e-05
1.27415e-05
1.23885e-05
1.20339e-05
1.15943e-05
1.11108e-05
1.05523e-05
1.00116e-05
9.48768e-06
8.98516e-06
8.27449e-06
7.20299e-06
5.96382e-06
5.21167e-06
4.93909e-06
4.40333e-06
3.0393e-06
1.06412e-06
5.98587e-10
1.88826e-08
3.4539e-07
1.65371e-07
7.81717e-08
4.07184e-14
8.52029e-11
2.42188e-10
7.37056e-12
5.02721e-10
1.03585e-09
1.7089e-11
9.7364e-15
1.34927e-15
1.38525e-16
9.69504e-15
2.45568e-08
1.28956e-08
2.92481e-08
2.44474e-07
2.10916e-07
5.06477e-11
2.79905e-07
2.06714e-07
2.55576e-08
1.08715e-06
3.33905e-06
6.96859e-06
6.48491e-06
5.59667e-06
7.49606e-06
1.08756e-05
1.28089e-05
1.35807e-05
1.44139e-05
1.60506e-05
1.76924e-05
1.92165e-05
2.03237e-05
2.13519e-05
2.19705e-05
2.2476e-05
2.27883e-05
2.32382e-05
2.35656e-05
2.38445e-05
2.39481e-05
2.42118e-05
2.43918e-05
2.466e-05
2.47567e-05
2.49484e-05
2.50766e-05
2.52741e-05
2.53652e-05
2.55082e-05
2.56801e-05
2.58606e-05
2.59907e-05
2.60919e-05
2.62726e-05
2.63653e-05
2.65546e-05
2.65991e-05
2.67935e-05
2.68372e-05
2.70218e-05
2.71806e-05
2.72006e-05
2.75699e-05
2.73838e-05
2.79536e-05
2.76281e-05
2.82688e-05
2.78505e-05
2.86687e-05
2.78888e-05
2.92218e-05
2.78447e-05
2.98842e-05
2.7659e-05
3.07745e-05
2.5321e-05
2.62881e-05
2.98965e-05
3.24423e-05
3.17642e-05
3.10116e-05
3.05195e-05
2.99616e-05
2.95772e-05
2.92091e-05
2.8833e-05
2.84109e-05
2.79583e-05
2.75221e-05
2.70486e-05
2.66378e-05
2.61545e-05
2.56653e-05
2.51667e-05
2.48797e-05
2.45072e-05
2.40862e-05
2.35932e-05
2.32826e-05
2.2939e-05
2.26043e-05
2.21871e-05
2.18618e-05
2.15096e-05
2.12175e-05
2.08891e-05
2.06116e-05
2.03097e-05
2.00517e-05
1.978e-05
1.95531e-05
1.93111e-05
1.91033e-05
1.88827e-05
1.86928e-05
1.84901e-05
1.83199e-05
1.8133e-05
1.79805e-05
1.78128e-05
1.76728e-05
1.75198e-05
1.73986e-05
1.72633e-05
1.71548e-05
1.70372e-05
1.69454e-05
1.68509e-05
1.67802e-05
1.67046e-05
1.66502e-05
1.66003e-05
1.65789e-05
1.65654e-05
1.65785e-05
1.66058e-05
1.665e-05
1.67228e-05
1.68277e-05
1.69683e-05
1.71479e-05
1.73658e-05
1.76174e-05
1.79049e-05
1.82363e-05
1.86151e-05
1.90402e-05
1.9525e-05
2.0031e-05
2.06385e-05
2.1221e-05
2.18871e-05
2.25291e-05
2.32206e-05
2.39067e-05
2.46673e-05
2.53705e-05
2.6897e-05
2.96501e-05
3.24827e-05
3.77203e-05
5.14709e-05
7.0381e-05
8.83954e-05
0.000103421
0.000114749
0.000120108
0.000121953
0.000116756
0.000106601
8.40827e-05
4.97254e-05
1.89515e-05
4.82586e-06
7.23257e-07
5.81566e-08
2.99954e-09
3.48769e-09
5.89554e-09
3.01569e-08
1.46002e-07
4.8117e-08
1.83326e-08
3.0074e-08
3.95252e-08
3.51842e-08
4.04469e-08
4.18833e-08
3.56304e-08
4.16436e-08
4.72346e-08
4.08407e-08
3.5838e-08
3.57413e-08
3.93628e-08
4.99918e-08
4.47668e-08
3.6991e-08
4.20444e-08
4.09825e-08
3.60734e-08
4.08569e-08
3.08908e-08
1.6838e-08
4.60545e-08
1.5223e-07
3.64344e-08
6.44851e-09
2.82524e-09
1.7467e-09
3.21827e-08
1.31802e-07
1.19216e-06
6.03068e-06
2.14074e-05
4.41097e-05
5.3937e-05
5.16106e-05
5.1226e-05
4.71672e-05
4.34225e-05
3.96683e-05
3.64235e-05
3.4053e-05
3.24068e-05
3.11886e-05
3.12023e-05
3.08527e-05
3.06358e-05
3.07026e-05
3.03806e-05
3.05805e-05
3.02323e-05
3.04669e-05
3.01393e-05
3.03858e-05
3.00719e-05
3.03252e-05
3.00105e-05
3.02597e-05
2.99498e-05
3.02064e-05
2.98994e-05
3.01504e-05
2.98533e-05
3.00911e-05
2.97736e-05
3.00073e-05
2.97791e-05
3.00634e-05
2.98126e-05
2.99965e-05
2.97361e-05
2.99212e-05
2.97107e-05
2.98351e-05
2.96492e-05
2.98034e-05
2.96369e-05
2.97524e-05
2.96399e-05
2.97367e-05
2.96304e-05
2.97131e-05
2.96339e-05
2.96847e-05
2.96354e-05
2.96766e-05
2.96245e-05
2.96579e-05
2.96156e-05
2.9641e-05
2.96214e-05
2.96203e-05
2.95785e-05
2.95574e-05
2.95235e-05
2.95127e-05
2.94721e-05
2.9437e-05
2.9384e-05
2.93128e-05
2.92176e-05
2.91362e-05
2.90512e-05
2.89602e-05
2.88413e-05
2.87266e-05
2.85879e-05
2.84542e-05
2.82905e-05
2.81187e-05
2.79363e-05
2.77388e-05
2.75112e-05
2.7239e-05
2.70305e-05
2.69151e-05
2.67082e-05
2.63566e-05
2.60078e-05
2.5688e-05
2.53382e-05
2.49803e-05
2.46069e-05
2.42172e-05
2.381e-05
2.33976e-05
2.29944e-05
2.2578e-05
2.2146e-05
2.16883e-05
2.12614e-05
2.08219e-05
2.03827e-05
1.99363e-05
1.95386e-05
1.91334e-05
1.87444e-05
1.83086e-05
1.79798e-05
1.75219e-05
1.71781e-05
1.67679e-05
1.63665e-05
1.59833e-05
1.55798e-05
1.51526e-05
1.47594e-05
1.43342e-05
1.39297e-05
1.34828e-05
1.30483e-05
1.25911e-05
1.21731e-05
1.16937e-05
1.12354e-05
1.07161e-05
1.02138e-05
9.60505e-06
8.98393e-06
8.34191e-06
7.69947e-06
6.89631e-06
6.08964e-06
5.33774e-06
4.66108e-06
3.90865e-06
3.177e-06
2.3163e-06
1.52679e-06
1.21215e-06
1.30184e-06
7.24902e-07
2.57953e-08
1.45629e-09
2.56787e-08
2.94695e-09
2.48566e-09
1.61522e-08
4.99627e-09
6.9122e-11
7.85039e-12
5.84527e-10
1.92018e-14
9.1099e-11
7.41632e-10
2.01667e-10
1.75194e-11
2.26938e-09
6.08708e-10
6.2641e-10
1.30668e-10
1.16414e-10
6.20232e-16
3.95632e-16
3.87699e-12
3.32723e-07
8.95808e-07
8.47877e-07
7.28544e-07
6.99057e-07
9.74929e-07
6.85948e-07
6.86855e-07
8.80698e-07
5.56363e-07
4.14948e-07
1.53852e-06
1.56725e-06
4.50168e-07
4.40568e-07
2.04925e-06
2.67835e-06
2.16522e-06
1.85933e-06
3.07952e-06
4.31153e-06
5.51757e-06
6.64336e-06
8.17868e-06
9.47414e-06
1.06464e-05
1.16169e-05
1.28548e-05
1.41573e-05
1.53354e-05
1.61428e-05
1.70157e-05
1.7878e-05
1.87931e-05
1.95444e-05
2.01756e-05
2.08796e-05
2.14513e-05
2.20264e-05
2.24232e-05
2.31702e-05
2.36991e-05
2.44394e-05
2.47258e-05
2.55374e-05
2.57874e-05
2.66885e-05
2.68519e-05
2.76569e-05
2.78137e-05
2.84171e-05
2.89315e-05
2.90968e-05
3.01029e-05
2.97669e-05
3.1142e-05
3.06821e-05
3.19898e-05
3.16155e-05
3.30085e-05
3.2204e-05
3.39823e-05
3.28959e-05
3.48656e-05
3.37055e-05
3.56861e-05
3.43086e-05
3.15394e-05
4.00259e-05
4.9949e-05
5.7045e-05
6.16464e-05
6.39815e-05
6.44526e-05
6.43402e-05
6.37486e-05
6.30952e-05
6.22019e-05
6.13188e-05
6.03893e-05
5.94307e-05
5.85429e-05
5.75267e-05
5.64937e-05
5.5469e-05
5.48185e-05
5.39819e-05
5.30906e-05
5.20873e-05
5.14313e-05
5.06681e-05
4.99437e-05
4.90687e-05
4.83908e-05
4.76383e-05
4.70151e-05
4.63129e-05
4.57223e-05
4.508e-05
4.45341e-05
4.39563e-05
4.34753e-05
4.29589e-05
4.25165e-05
4.20445e-05
4.16444e-05
4.12141e-05
4.08521e-05
4.04549e-05
4.01263e-05
3.97674e-05
3.94683e-05
3.91386e-05
3.88747e-05
3.8581e-05
3.83422e-05
3.80799e-05
3.78683e-05
3.76472e-05
3.74758e-05
3.73012e-05
3.71662e-05
3.70351e-05
3.69514e-05
3.68879e-05
3.68687e-05
3.68807e-05
3.69298e-05
3.70275e-05
3.71786e-05
3.73964e-05
3.76804e-05
3.80419e-05
3.84683e-05
3.8973e-05
3.95459e-05
4.02105e-05
4.09468e-05
4.17819e-05
4.2678e-05
4.36787e-05
4.4729e-05
4.58767e-05
4.70375e-05
4.83143e-05
4.95133e-05
5.0922e-05
5.23069e-05
5.45282e-05
5.72583e-05
6.0903e-05
6.64974e-05
7.66491e-05
0.000100015
0.000123922
0.000145288
0.000162259
0.000172545
0.000176484
0.000170988
0.000158127
0.000124006
8.26948e-05
2.51833e-05
6.90578e-06
1.22304e-06
4.55684e-08
1.49311e-09
3.16925e-09
5.22287e-09
2.77439e-08
1.43654e-07
4.85328e-08
1.87417e-08
2.98575e-08
3.97964e-08
3.47337e-08
3.80967e-08
4.04081e-08
3.52507e-08
4.13388e-08
4.76826e-08
4.0852e-08
3.52745e-08
3.52548e-08
3.85656e-08
5.12409e-08
4.60621e-08
3.738e-08
4.12009e-08
3.89138e-08
3.58801e-08
4.16506e-08
3.11049e-08
1.65675e-08
4.51144e-08
1.52723e-07
3.69171e-08
5.91103e-09
1.94766e-09
4.38628e-10
1.71821e-08
1.50846e-07
8.91755e-07
4.18608e-06
1.64383e-05
3.83491e-05
5.18732e-05
5.15687e-05
5.24206e-05
5.0348e-05
4.75808e-05
4.54608e-05
4.32305e-05
4.17692e-05
4.05551e-05
4.00589e-05
3.93895e-05
3.93428e-05
3.88975e-05
3.89937e-05
3.8651e-05
3.87943e-05
3.84991e-05
3.86485e-05
3.83913e-05
3.85364e-05
3.83072e-05
3.84438e-05
3.82302e-05
3.83555e-05
3.8153e-05
3.82746e-05
3.80784e-05
3.81964e-05
3.7999e-05
3.81125e-05
3.79065e-05
3.80315e-05
3.78663e-05
3.80302e-05
3.78363e-05
3.79344e-05
3.77252e-05
3.78231e-05
3.76311e-05
3.77028e-05
3.75241e-05
3.76166e-05
3.74493e-05
3.75206e-05
3.73848e-05
3.74384e-05
3.73053e-05
3.73438e-05
3.72262e-05
3.72374e-05
3.71379e-05
3.71324e-05
3.70263e-05
3.70071e-05
3.6903e-05
3.68685e-05
3.67732e-05
3.67015e-05
3.65778e-05
3.64776e-05
3.63524e-05
3.62478e-05
3.61014e-05
3.59595e-05
3.57837e-05
3.55901e-05
3.53623e-05
3.51476e-05
3.49108e-05
3.46677e-05
3.43819e-05
3.40997e-05
3.37762e-05
3.34563e-05
3.30937e-05
3.27219e-05
3.23274e-05
3.19121e-05
3.14621e-05
3.09775e-05
3.05337e-05
3.01484e-05
2.9678e-05
2.90916e-05
2.84749e-05
2.78694e-05
2.72227e-05
2.65767e-05
2.59097e-05
2.52387e-05
2.45333e-05
2.38427e-05
2.31658e-05
2.24986e-05
2.17942e-05
2.1091e-05
2.04275e-05
1.9785e-05
1.91148e-05
1.84922e-05
1.78972e-05
1.735e-05
1.67664e-05
1.62003e-05
1.5693e-05
1.50887e-05
1.45928e-05
1.39898e-05
1.34445e-05
1.28725e-05
1.23184e-05
1.16846e-05
1.11224e-05
1.04875e-05
9.87709e-06
9.17604e-06
8.47457e-06
7.71101e-06
6.9933e-06
6.19579e-06
5.4708e-06
4.68923e-06
3.96403e-06
3.16364e-06
2.53624e-06
2.03195e-06
1.52598e-06
8.34347e-07
5.58457e-07
4.91863e-07
2.84388e-07
9.32231e-08
9.65877e-08
1.70608e-08
2.53141e-09
4.50561e-09
1.39676e-08
3.6296e-09
2.21336e-09
2.67069e-09
3.16211e-09
1.98071e-09
1.12309e-08
1.57528e-09
6.68636e-10
7.97258e-10
2.34086e-10
1.39787e-10
1.174e-09
7.70703e-11
5.48214e-10
2.02185e-10
4.87658e-10
3.45865e-12
1.28002e-13
1.80887e-10
1.81365e-09
3.60735e-10
1.1898e-14
6.12946e-13
2.91731e-07
1.43247e-06
1.14288e-06
8.80856e-07
7.42447e-07
5.79932e-07
8.21685e-07
6.30566e-07
6.23621e-07
7.61388e-07
6.90924e-07
4.81105e-07
8.5527e-07
8.4867e-07
6.22656e-07
5.37652e-07
7.84436e-07
7.70889e-07
6.75936e-07
3.62366e-07
6.75297e-07
8.09548e-07
9.01187e-07
9.75495e-07
1.61514e-06
1.94374e-06
2.45241e-06
2.90013e-06
3.3968e-06
4.27178e-06
5.40653e-06
6.20614e-06
6.92716e-06
7.91392e-06
9.27078e-06
1.06355e-05
1.16548e-05
1.29201e-05
1.38554e-05
1.49736e-05
1.56846e-05
1.70304e-05
1.79314e-05
1.92808e-05
1.9758e-05
2.11272e-05
2.15426e-05
2.30595e-05
2.34131e-05
2.47175e-05
2.50458e-05
2.60267e-05
2.68396e-05
2.72237e-05
2.86443e-05
2.83909e-05
3.01537e-05
2.99143e-05
3.14224e-05
3.14825e-05
3.28704e-05
3.27414e-05
3.40989e-05
3.41952e-05
3.51525e-05
3.57123e-05
3.63877e-05
3.81389e-05
3.53471e-05
4.50063e-05
5.94442e-05
7.21251e-05
8.14614e-05
8.74947e-05
9.09319e-05
9.29146e-05
9.40317e-05
9.44378e-05
9.42981e-05
9.37743e-05
9.30509e-05
9.20912e-05
9.11154e-05
8.98604e-05
8.84777e-05
8.71052e-05
8.62213e-05
8.50194e-05
8.36963e-05
8.22574e-05
8.12992e-05
8.01441e-05
7.9022e-05
7.77072e-05
7.66844e-05
7.55377e-05
7.45692e-05
7.34878e-05
7.2575e-05
7.15793e-05
7.07317e-05
6.98379e-05
6.90903e-05
6.82852e-05
6.7594e-05
6.68585e-05
6.62348e-05
6.5563e-05
6.49958e-05
6.43781e-05
6.38627e-05
6.32968e-05
6.28274e-05
6.23092e-05
6.18874e-05
6.14235e-05
6.10441e-05
6.06235e-05
6.02736e-05
5.9908e-05
5.96228e-05
5.93354e-05
5.91075e-05
5.88808e-05
5.87156e-05
5.85781e-05
5.85056e-05
5.84788e-05
5.85126e-05
5.86109e-05
5.87806e-05
5.90364e-05
5.93883e-05
5.98469e-05
6.04089e-05
6.10842e-05
6.18585e-05
6.27517e-05
6.37442e-05
6.48585e-05
6.60656e-05
6.73935e-05
6.87937e-05
7.02948e-05
7.18267e-05
7.34498e-05
7.50415e-05
7.67651e-05
7.85406e-05
8.07696e-05
8.38274e-05
8.77716e-05
9.37273e-05
0.000104353
0.000125311
0.000152758
0.000178046
0.000199293
0.000214409
0.000221859
0.000218486
0.000205814
0.000165797
0.000123446
4.14549e-05
8.5929e-06
1.64413e-06
1.10709e-07
3.78578e-09
4.0553e-09
5.5964e-09
2.70091e-08
1.4218e-07
4.94095e-08
1.90388e-08
3.0031e-08
3.91783e-08
3.49904e-08
4.00336e-08
4.18877e-08
3.54223e-08
4.08908e-08
4.95745e-08
4.07402e-08
3.59635e-08
3.57693e-08
3.91135e-08
5.09035e-08
4.70241e-08
3.79505e-08
4.15591e-08
4.12291e-08
3.61837e-08
4.16936e-08
3.15393e-08
1.62307e-08
4.48923e-08
1.54858e-07
3.95293e-08
6.55248e-09
2.43255e-09
1.42461e-09
2.86481e-08
9.22549e-08
4.55448e-07
2.75243e-06
1.18936e-05
3.20259e-05
4.85382e-05
5.06851e-05
5.2276e-05
5.22861e-05
5.05648e-05
4.96293e-05
4.8147e-05
4.73855e-05
4.65355e-05
4.61331e-05
4.56809e-05
4.55044e-05
4.52247e-05
4.51648e-05
4.49704e-05
4.49635e-05
4.4809e-05
4.4823e-05
4.46885e-05
4.47124e-05
4.4587e-05
4.4617e-05
4.44927e-05
4.45243e-05
4.43993e-05
4.4432e-05
4.4305e-05
4.43395e-05
4.42039e-05
4.42382e-05
4.40975e-05
4.41432e-05
4.40184e-05
4.4087e-05
4.39358e-05
4.39615e-05
4.37919e-05
4.38142e-05
4.36445e-05
4.36563e-05
4.34895e-05
4.35129e-05
4.33488e-05
4.33593e-05
4.32072e-05
4.32011e-05
4.30438e-05
4.30221e-05
4.2867e-05
4.28198e-05
4.26686e-05
4.2599e-05
4.2434e-05
4.23444e-05
4.21699e-05
4.20559e-05
4.1874e-05
4.1716e-05
4.14995e-05
4.13044e-05
4.10712e-05
4.08534e-05
4.05854e-05
4.03177e-05
4.00046e-05
3.96755e-05
3.93018e-05
3.89363e-05
3.85287e-05
3.81159e-05
3.76464e-05
3.71782e-05
3.66538e-05
3.61308e-05
3.55571e-05
3.49731e-05
3.43563e-05
3.37162e-05
3.30415e-05
3.23408e-05
3.16309e-05
3.09427e-05
3.0212e-05
2.94129e-05
2.85341e-05
2.7654e-05
2.67231e-05
2.58118e-05
2.48771e-05
2.39606e-05
2.29903e-05
2.20675e-05
2.11626e-05
2.02937e-05
1.93589e-05
1.84657e-05
1.76058e-05
1.68041e-05
1.59223e-05
1.516e-05
1.43689e-05
1.37022e-05
1.29254e-05
1.2255e-05
1.15569e-05
1.08349e-05
1.0139e-05
9.33655e-06
8.58733e-06
7.76866e-06
6.98719e-06
6.06958e-06
5.3024e-06
4.43908e-06
3.71976e-06
2.91259e-06
2.27052e-06
1.64837e-06
1.21485e-06
7.03247e-07
5.33517e-07
3.0086e-07
1.70122e-07
2.45812e-08
2.05489e-08
2.4774e-08
4.08341e-08
2.4855e-08
7.04471e-08
7.27395e-08
7.52403e-08
4.08608e-08
2.89747e-08
1.08657e-08
3.05442e-08
1.37841e-08
1.87158e-08
1.09083e-08
1.5335e-08
1.01007e-08
1.13713e-08
7.67232e-09
1.0704e-08
1.98915e-09
2.41607e-09
3.69156e-10
1.91982e-09
3.95548e-09
4.18397e-09
5.46654e-09
1.37492e-09
7.75855e-10
1.12242e-10
1.93394e-09
1.69684e-14
6.06067e-10
1.0087e-08
1.73807e-12
9.29426e-15
1.07197e-16
7.56142e-07
1.14888e-06
9.30732e-08
1.71672e-07
7.11698e-08
9.91638e-08
1.18889e-07
1.15446e-07
1.20882e-07
2.03281e-07
2.15525e-07
2.21951e-07
1.9339e-07
2.67606e-07
2.19998e-07
2.69937e-07
2.06507e-07
2.63932e-07
1.77974e-07
2.00086e-07
1.56833e-07
2.10355e-07
1.52306e-07
1.99167e-07
1.97211e-07
3.49838e-07
2.23984e-07
6.1651e-07
3.84404e-07
7.0773e-07
8.8358e-07
1.35422e-06
1.16099e-06
1.66291e-06
1.96649e-06
3.08548e-06
3.25174e-06
4.20653e-06
4.66039e-06
5.86288e-06
6.19176e-06
7.78935e-06
8.86731e-06
1.08539e-05
1.15448e-05
1.35146e-05
1.41762e-05
1.63498e-05
1.6975e-05
1.87645e-05
1.92741e-05
2.06104e-05
2.16881e-05
2.24118e-05
2.40875e-05
2.41521e-05
2.60286e-05
2.62723e-05
2.77125e-05
2.84885e-05
2.95957e-05
3.04105e-05
3.11289e-05
3.25117e-05
3.25655e-05
3.45673e-05
3.40111e-05
3.83264e-05
3.7311e-05
4.68865e-05
6.43354e-05
8.19334e-05
9.58749e-05
0.000105733
0.000112389
0.000116949
0.000120406
0.000122668
0.000124187
0.000124898
0.000125254
0.000125062
0.000124703
0.000123816
0.00012256
0.000121207
0.000120434
0.000119205
0.000117636
0.000115894
0.000114746
0.000113336
0.00011188
0.000110176
0.000108827
0.000107318
0.000106007
0.000104555
0.000103311
0.00010196
0.000100793
9.95731e-05
9.85377e-05
9.74292e-05
9.64711e-05
9.5454e-05
9.45857e-05
9.36528e-05
9.28606e-05
9.20024e-05
9.12836e-05
9.049e-05
8.98276e-05
8.90975e-05
8.84996e-05
8.78427e-05
8.73002e-05
8.66963e-05
8.61874e-05
8.56504e-05
8.52293e-05
8.48057e-05
8.44639e-05
8.41148e-05
8.38405e-05
8.36005e-05
8.34462e-05
8.33534e-05
8.33422e-05
8.34104e-05
8.35684e-05
8.38282e-05
8.421e-05
8.47283e-05
8.53856e-05
8.61881e-05
8.71178e-05
8.81881e-05
8.93841e-05
9.07173e-05
9.21638e-05
9.37416e-05
9.54019e-05
9.71623e-05
9.89649e-05
0.000100834
0.00010271
0.000104674
0.000106726
0.000109104
0.000112052
0.00011602
0.000121944
0.000132072
0.000149739
0.000178819
0.000206804
0.000231628
0.000251297
0.000263111
0.000263395
0.000252524
0.000210059
0.000168304
7.93326e-05
1.38316e-05
2.29284e-06
1.12229e-07
2.39409e-09
3.95475e-09
5.09857e-09
2.50473e-08
1.40147e-07
4.96505e-08
1.93729e-08
2.9905e-08
3.95203e-08
3.39539e-08
3.78373e-08
4.01171e-08
3.53763e-08
4.04243e-08
4.77238e-08
4.02941e-08
3.52411e-08
3.5448e-08
3.89358e-08
4.89192e-08
4.80243e-08
3.82359e-08
4.08635e-08
3.95014e-08
3.62739e-08
4.20591e-08
3.19684e-08
1.60716e-08
4.39113e-08
1.54958e-07
4.02464e-08
5.97534e-09
1.56254e-09
2.95387e-10
1.58169e-08
1.29065e-07
4.06328e-07
1.66355e-06
8.06682e-06
2.5156e-05
4.37522e-05
4.88007e-05
5.09716e-05
5.26637e-05
5.18841e-05
5.18468e-05
5.10592e-05
5.07571e-05
5.02703e-05
5.00466e-05
4.97648e-05
4.96233e-05
4.94504e-05
4.93712e-05
4.92549e-05
4.92158e-05
4.91247e-05
4.91057e-05
4.90258e-05
4.90154e-05
4.89393e-05
4.89337e-05
4.88554e-05
4.88501e-05
4.87686e-05
4.87623e-05
4.86755e-05
4.86688e-05
4.85719e-05
4.85644e-05
4.84622e-05
4.84576e-05
4.83565e-05
4.83613e-05
4.82393e-05
4.82151e-05
4.80727e-05
4.804e-05
4.7889e-05
4.78487e-05
4.76907e-05
4.76512e-05
4.74876e-05
4.74348e-05
4.72671e-05
4.7197e-05
4.7015e-05
4.69248e-05
4.67331e-05
4.66157e-05
4.6412e-05
4.62665e-05
4.60395e-05
4.58669e-05
4.56161e-05
4.5409e-05
4.51343e-05
4.48785e-05
4.45613e-05
4.42593e-05
4.39067e-05
4.35629e-05
4.31615e-05
4.27562e-05
4.2296e-05
4.18224e-05
4.12929e-05
4.07641e-05
4.01732e-05
3.95789e-05
3.89142e-05
3.82484e-05
3.75134e-05
3.67793e-05
3.59886e-05
3.51877e-05
3.43458e-05
3.34804e-05
3.25804e-05
3.16592e-05
3.06633e-05
2.96708e-05
2.87e-05
2.77077e-05
2.65807e-05
2.54513e-05
2.42602e-05
2.31174e-05
2.195e-05
2.08288e-05
1.96332e-05
1.85295e-05
1.74402e-05
1.64099e-05
1.52807e-05
1.4243e-05
1.32142e-05
1.22808e-05
1.11875e-05
1.02803e-05
9.2474e-06
8.41555e-06
7.36217e-06
6.53627e-06
5.59803e-06
4.78933e-06
3.95129e-06
3.11385e-06
2.4122e-06
1.85259e-06
1.35174e-06
7.36761e-07
4.50059e-07
1.26695e-07
6.55967e-08
4.97224e-09
7.00006e-09
2.73045e-09
7.2571e-09
2.21432e-09
1.38532e-08
4.2053e-09
8.18402e-09
6.18835e-10
4.98032e-09
4.64763e-09
2.1608e-08
2.29821e-08
5.39705e-08
3.93238e-08
4.4197e-08
1.60737e-08
1.18565e-08
5.45707e-09
7.55803e-09
2.98376e-09
7.62111e-09
5.26386e-09
6.15214e-09
4.57479e-09
6.37552e-09
7.80628e-09
2.7949e-09
1.05257e-09
6.01568e-10
2.65551e-09
1.69725e-09
3.52831e-09
5.08979e-10
2.08628e-09
9.46447e-11
3.63195e-09
6.40253e-11
3.93469e-09
6.4202e-10
5.2081e-11
5.1531e-11
1.20986e-13
1.46698e-15
1.20852e-10
9.79575e-07
6.54105e-07
1.46925e-08
5.11852e-07
1.0943e-07
3.80908e-07
1.52102e-07
3.39857e-07
1.63238e-07
3.85565e-07
1.62908e-07
4.5604e-07
2.08696e-07
5.26709e-07
1.77969e-07
5.03809e-07
1.5448e-07
4.60114e-07
1.18944e-07
3.85478e-07
9.0241e-08
3.87311e-07
5.40376e-08
3.95315e-07
4.55208e-08
5.67142e-07
7.59823e-08
7.5266e-07
1.74417e-07
8.62175e-07
2.83401e-07
1.14853e-06
2.91771e-07
1.28084e-06
3.75136e-07
1.3884e-06
5.28088e-07
1.59189e-06
5.67225e-07
1.97789e-06
1.00469e-06
2.18808e-06
1.68337e-06
3.65805e-06
3.28946e-06
5.04401e-06
5.02396e-06
7.4994e-06
8.12151e-06
1.02657e-05
1.08006e-05
1.2504e-05
1.38069e-05
1.50756e-05
1.68776e-05
1.75212e-05
1.92883e-05
2.02491e-05
2.14353e-05
2.30496e-05
2.37955e-05
2.5601e-05
2.5765e-05
2.82232e-05
2.77223e-05
3.06745e-05
2.95989e-05
3.53957e-05
3.7634e-05
4.68686e-05
6.56146e-05
8.71167e-05
0.000105363
0.000119086
0.000129056
0.000136357
0.000142259
0.000146594
0.000150026
0.000152343
0.000154192
0.00015525
0.000156011
0.000156037
0.000155448
0.0001546
0.000154397
0.000153674
0.000152289
0.000150575
0.000149515
0.000148206
0.00014668
0.000144802
0.000143268
0.000141568
0.000140033
0.000138335
0.000136835
0.000135218
0.000133786
0.000132303
0.000131019
0.000129652
0.000128453
0.000127187
0.00012609
0.000124923
0.000123917
0.000122833
0.000121914
0.000120905
0.000120052
0.000119117
0.000118341
0.000117495
0.000116787
0.000115992
0.000115317
0.0001146
0.000114033
0.000113461
0.000112992
0.000112505
0.000112107
0.000111739
0.00011148
0.000111294
0.000111213
0.000111217
0.000111329
0.000111559
0.000111931
0.000112466
0.000113174
0.000114056
0.000115092
0.000116285
0.000117621
0.000119111
0.000120727
0.000122474
0.000124309
0.000126231
0.000128194
0.000130203
0.000132218
0.000134291
0.000136445
0.00013882
0.000141672
0.000145558
0.000151048
0.000160432
0.000176179
0.000202598
0.000232501
0.000260247
0.000283883
0.000300228
0.000304977
0.000297008
0.000254648
0.000214262
0.000128733
2.25855e-05
3.35081e-06
2.81857e-07
6.06571e-09
4.98703e-09
5.55324e-09
2.44697e-08
1.3861e-07
5.06776e-08
1.94947e-08
3.01566e-08
3.86845e-08
3.48294e-08
3.98838e-08
4.21518e-08
3.51867e-08
4.02399e-08
4.80421e-08
4.07762e-08
3.56882e-08
3.57481e-08
3.89581e-08
4.7628e-08
4.74772e-08
3.87489e-08
4.14057e-08
4.17659e-08
3.59254e-08
4.18651e-08
3.25218e-08
1.58499e-08
4.35645e-08
1.56035e-07
4.34844e-08
6.88188e-09
2.19583e-09
1.25619e-09
2.59236e-08
8.35758e-08
2.25477e-07
8.63579e-07
5.00515e-06
1.8433e-05
3.7536e-05
4.5759e-05
4.84738e-05
5.14963e-05
5.16663e-05
5.22587e-05
5.21099e-05
5.21423e-05
5.20189e-05
5.19581e-05
5.18763e-05
5.18129e-05
5.17577e-05
5.17111e-05
5.16728e-05
5.1642e-05
5.16114e-05
5.15898e-05
5.15602e-05
5.15427e-05
5.15101e-05
5.14943e-05
5.14556e-05
5.1438e-05
5.13917e-05
5.13711e-05
5.13163e-05
5.12919e-05
5.12258e-05
5.11971e-05
5.1122e-05
5.10879e-05
5.10052e-05
5.09687e-05
5.08678e-05
5.081e-05
5.06878e-05
5.0616e-05
5.04799e-05
5.03958e-05
5.02434e-05
5.01484e-05
4.9981e-05
4.98671e-05
4.96827e-05
4.95472e-05
4.93385e-05
4.91759e-05
4.89457e-05
4.87511e-05
4.84936e-05
4.82638e-05
4.79713e-05
4.77069e-05
4.73748e-05
4.70652e-05
4.66935e-05
4.63304e-05
4.59068e-05
4.54875e-05
4.50076e-05
4.45287e-05
4.39863e-05
4.34351e-05
4.2822e-05
4.21968e-05
4.15042e-05
4.08037e-05
4.00216e-05
3.92387e-05
3.83726e-05
3.75035e-05
3.6555e-05
3.56086e-05
3.46016e-05
3.35853e-05
3.25214e-05
3.14351e-05
3.03138e-05
2.91727e-05
2.78906e-05
2.66176e-05
2.54345e-05
2.42697e-05
2.29195e-05
2.15773e-05
2.01589e-05
1.88243e-05
1.74589e-05
1.61692e-05
1.47854e-05
1.3536e-05
1.22747e-05
1.10735e-05
9.69808e-06
8.46936e-06
7.1777e-06
6.09784e-06
4.79594e-06
3.93804e-06
2.8869e-06
2.34016e-06
1.34845e-06
1.14816e-06
4.62472e-07
4.52933e-07
7.91478e-08
9.33263e-08
1.38302e-08
9.98429e-08
1.04206e-08
6.01119e-08
4.81986e-09
1.98409e-08
1.32107e-09
1.17796e-08
8.81244e-10
2.69616e-08
3.8746e-09
4.44877e-08
1.16726e-08
5.21047e-08
6.3494e-09
2.5683e-08
8.09344e-09
6.36828e-08
3.41179e-08
1.34362e-07
5.7676e-08
1.37572e-07
3.72852e-08
6.41896e-08
9.44257e-09
3.77955e-08
1.01914e-08
4.89303e-08
1.67376e-08
3.89711e-08
7.2373e-09
3.67467e-08
1.18526e-08
3.33689e-08
2.99974e-09
1.13781e-08
1.75977e-09
9.52401e-09
4.968e-10
4.56357e-09
1.70156e-10
1.88796e-09
1.7655e-11
8.34885e-10
9.95993e-10
5.58988e-09
7.11143e-09
1.97805e-11
3.55922e-10
2.16675e-12
6.25988e-15
5.2729e-11
1.04536e-06
2.89647e-07
6.28635e-08
3.86918e-07
1.99833e-09
1.55709e-07
2.25514e-09
1.72959e-07
5.96781e-09
1.89678e-07
6.04877e-09
2.8094e-07
1.37213e-08
3.0947e-07
9.79809e-09
3.09044e-07
8.80758e-09
2.84422e-07
3.11166e-09
2.04355e-07
1.06434e-09
2.10599e-07
1.33791e-10
1.98661e-07
1.04798e-11
2.79594e-07
2.43673e-10
4.30684e-07
7.658e-09
6.76342e-07
4.67587e-08
9.85206e-07
7.01127e-08
1.16478e-06
1.15104e-07
1.21398e-06
1.42541e-07
1.35135e-06
1.06353e-07
1.43686e-06
1.01218e-07
1.33731e-06
5.57159e-08
1.60656e-06
1.50379e-07
1.95874e-06
3.90538e-07
2.53516e-06
1.84744e-06
3.82009e-06
3.08514e-06
4.41449e-06
4.90313e-06
6.37016e-06
7.67288e-06
8.86032e-06
1.02222e-05
1.20433e-05
1.29664e-05