/*--------------------------------*- C++ -*----------------------------------*\
| =========                 |                                                 |
| \\      /  F ield         | OpenFOAM: The Open Source CFD Toolbox           |
|  \\    /   O peration     | Version:  v2006                                 |
|   \\  /    A nd           | Website:  www.openfoam.com                      |
|    \\/     M anipulation  |                                                 |
\*---------------------------------------------------------------------------*/
FoamFile
{
    version     2.0;
    format      ascii;
    class       volScalarField;
    location    "185";
    object      nuTilda;
}
// * * * * * * * * * * * * * * * * * * * * * * * * * * * * * * * * * * * * * //

dimensions      [0 2 -1 0 0 0 0];


internalField   nonuniform List<scalar> 
93840
(
4.1054e-07
4.30725e-07
4.44534e-07
4.3638e-07
4.17498e-07
4.27389e-07
4.32113e-07
4.14741e-07
4.32209e-07
4.0064e-07
3.46367e-07
4.4902e-07
6.27184e-07
4.08634e-07
2.65624e-07
2.2238e-07
2.03159e-07
4.23097e-07
7.73876e-07
2.77267e-06
1.16998e-05
3.33402e-05
5.34507e-05
5.48423e-05
4.86374e-05
4.20567e-05
3.02601e-05
2.40939e-05
1.93994e-05
1.77175e-05
1.60641e-05
1.49127e-05
1.52542e-05
1.4492e-05
1.45546e-05
1.42837e-05
1.4138e-05
1.40207e-05
1.3829e-05
1.37542e-05
1.35809e-05
1.35216e-05
1.33637e-05
1.32993e-05
1.31487e-05
1.30755e-05
1.29336e-05
1.28697e-05
1.27416e-05
1.26654e-05
1.2551e-05
1.24848e-05
1.23517e-05
1.22673e-05
1.22002e-05
1.21849e-05
1.20948e-05
1.20208e-05
1.18912e-05
1.18169e-05
1.17612e-05
1.16876e-05
1.16049e-05
1.15794e-05
1.15354e-05
1.14864e-05
1.14649e-05
1.14477e-05
1.1417e-05
1.13908e-05
1.1387e-05
1.13672e-05
1.13747e-05
1.13769e-05
1.13844e-05
1.13907e-05
1.14153e-05
1.14269e-05
1.147e-05
1.14941e-05
1.15253e-05
1.1552e-05
1.15948e-05
1.16518e-05
1.17179e-05
1.1774e-05
1.1846e-05
1.19083e-05
1.1975e-05
1.20483e-05
1.2153e-05
1.22674e-05
1.23775e-05
1.25025e-05
1.26275e-05
1.27737e-05
1.29155e-05
1.30649e-05
1.32204e-05
1.33941e-05
1.35732e-05
1.37463e-05
1.3934e-05
1.4303e-05
1.46677e-05
1.47518e-05
1.48262e-05
1.51115e-05
1.54198e-05
1.57321e-05
1.60394e-05
1.63519e-05
1.66588e-05
1.70351e-05
1.73702e-05
1.77117e-05
1.80296e-05
1.8401e-05
1.86998e-05
1.9003e-05
1.92413e-05
1.95223e-05
1.96562e-05
1.98419e-05
1.98285e-05
1.98048e-05
1.99135e-05
1.96333e-05
1.97415e-05
1.96287e-05
1.94745e-05
1.94199e-05
1.92259e-05
1.91885e-05
1.90778e-05
1.89558e-05
1.88407e-05
1.87418e-05
1.86552e-05
1.85916e-05
1.85176e-05
1.84644e-05
1.83465e-05
1.82805e-05
1.82078e-05
1.81648e-05
1.80821e-05
1.80244e-05
1.79035e-05
1.78097e-05
1.77064e-05
1.76037e-05
1.7463e-05
1.73239e-05
1.71685e-05
1.70111e-05
1.68158e-05
1.66152e-05
1.63858e-05
1.61975e-05
1.60081e-05
1.57686e-05
1.54362e-05
1.51438e-05
1.4831e-05
1.43497e-05
1.34294e-05
1.14047e-05
7.00459e-06
2.02635e-06
5.55442e-06
9.47229e-06
3.48543e-06
5.97506e-08
3.38126e-07
6.40817e-07
3.23753e-07
7.88214e-08
1.57161e-07
1.33313e-07
2.22479e-07
1.68684e-08
5.70016e-08
1.77441e-08
2.83844e-07
1.68922e-07
8.52577e-08
1.09261e-06
8.229e-07
3.3557e-07
3.79102e-06
5.84104e-06
6.17828e-07
5.39647e-06
1.97619e-05
2.73045e-05
2.96723e-05
3.08221e-05
3.15052e-05
3.18852e-05
3.19567e-05
3.19359e-05
3.18008e-05
3.17661e-05
3.15802e-05
3.15345e-05
3.13417e-05
3.12837e-05
3.10441e-05
3.09612e-05
3.07554e-05
3.06692e-05
3.0459e-05
3.03812e-05
3.01932e-05
3.01192e-05
2.98786e-05
2.97844e-05
2.95368e-05
2.94549e-05
2.93957e-05
2.93597e-05
2.90976e-05
2.90481e-05
2.88277e-05
2.8741e-05
2.84939e-05
2.84382e-05
2.81695e-05
2.80916e-05
2.79082e-05
2.80002e-05
2.78253e-05
2.79581e-05
2.77477e-05
2.77954e-05
2.77129e-05
2.75727e-05
2.7546e-05
2.73334e-05
2.74554e-05
2.72374e-05
2.73627e-05
2.72603e-05
2.73703e-05
2.71584e-05
2.74152e-05
2.7165e-05
2.74005e-05
2.61052e-05
2.27462e-05
1.12294e-05
4.42401e-06
5.47499e-06
6.30383e-06
6.35739e-06
6.64178e-06
6.433e-06
6.55495e-06
6.37059e-06
6.387e-06
6.21777e-06
6.1989e-06
6.09293e-06
6.06987e-06
6.00855e-06
5.96585e-06
5.91007e-06
5.88549e-06
5.86967e-06
5.78883e-06
5.7268e-06
5.67233e-06
5.66901e-06
5.61205e-06
5.58348e-06
5.52886e-06
5.52325e-06
5.48356e-06
5.47962e-06
5.44451e-06
5.44162e-06
5.41255e-06
5.41187e-06
5.38847e-06
5.38983e-06
5.36954e-06
5.37137e-06
5.35309e-06
5.3548e-06
5.33723e-06
5.34102e-06
5.3234e-06
5.32806e-06
5.31044e-06
5.31367e-06
5.29393e-06
5.29692e-06
5.27479e-06
5.27538e-06
5.2518e-06
5.25123e-06
5.22608e-06
5.22184e-06
5.19077e-06
5.18254e-06
5.15122e-06
5.14227e-06
5.10943e-06
5.0965e-06
5.06087e-06
5.04034e-06
5.00165e-06
4.98064e-06
4.9416e-06
4.91717e-06
4.87184e-06
4.83456e-06
4.77337e-06
4.72027e-06
4.6434e-06
4.56892e-06
4.46732e-06
4.35448e-06
4.22165e-06
4.09848e-06
4.05706e-06
4.16471e-06
4.28875e-06
4.40849e-06
4.55553e-06
4.6141e-06
5.0627e-06
5.88186e-06
6.8141e-06
7.39406e-06
1.66659e-05
3.04816e-05
4.20236e-05
5.11384e-05
5.90048e-05
6.30243e-05
6.8483e-05
6.92783e-05
6.81268e-05
6.09658e-05
3.86934e-05
1.47947e-05
3.85659e-06
9.7455e-07
3.79706e-07
1.6795e-07
2.13623e-07
2.5831e-07
4.00875e-07
6.24754e-07
4.49523e-07
3.48631e-07
3.99724e-07
4.32484e-07
4.12725e-07
4.2584e-07
4.24738e-07
4.16599e-07
4.34591e-07
4.43345e-07
4.30667e-07
4.09634e-07
4.0999e-07
4.30643e-07
4.43723e-07
4.38922e-07
4.18701e-07
4.24722e-07
4.259e-07
4.15162e-07
4.33766e-07
4.01128e-07
3.44849e-07
4.4644e-07
6.28263e-07
4.10142e-07
2.60947e-07
2.05003e-07
1.44921e-07
3.46659e-07
7.36543e-07
2.16499e-06
8.5577e-06
2.74291e-05
4.95384e-05
5.47768e-05
5.06044e-05
4.85181e-05
4.17258e-05
3.52976e-05
2.92045e-05
2.44519e-05
2.14677e-05
1.93792e-05
1.86128e-05
1.82821e-05
1.88674e-05
1.79242e-05
1.89331e-05
1.77825e-05
1.89018e-05
1.77231e-05
1.88099e-05
1.7706e-05
1.87182e-05
1.77219e-05
1.86271e-05
1.77529e-05
1.85283e-05
1.77715e-05
1.844e-05
1.78027e-05
1.83529e-05
1.78282e-05
1.82955e-05
1.78266e-05
1.81772e-05
1.78306e-05
1.81948e-05
1.79082e-05
1.81741e-05
1.79031e-05
1.81228e-05
1.7944e-05
1.80987e-05
1.79347e-05
1.80972e-05
1.79806e-05
1.80897e-05
1.80208e-05
1.81231e-05
1.80701e-05
1.81564e-05
1.81367e-05
1.81974e-05
1.82001e-05
1.82647e-05
1.8272e-05
1.83339e-05
1.83538e-05
1.84138e-05
1.84568e-05
1.85162e-05
1.85555e-05
1.86076e-05
1.86556e-05
1.87223e-05
1.87802e-05
1.88394e-05
1.89041e-05
1.89611e-05
1.90093e-05
1.90659e-05
1.91277e-05
1.91919e-05
1.92479e-05
1.93057e-05
1.93603e-05
1.94164e-05
1.94693e-05
1.9515e-05
1.95646e-05
1.96097e-05
1.96452e-05
1.96492e-05
1.96928e-05
1.97878e-05
1.98422e-05
1.98201e-05
1.98104e-05
1.9823e-05
1.98271e-05
1.98212e-05
1.98125e-05
1.9791e-05
1.97688e-05
1.97256e-05
1.96921e-05
1.96344e-05
1.95773e-05
1.94745e-05
1.9389e-05
1.92582e-05
1.91401e-05
1.89544e-05
1.8814e-05
1.86016e-05
1.84525e-05
1.822e-05
1.80454e-05
1.78523e-05
1.76219e-05
1.74447e-05
1.72184e-05
1.70284e-05
1.68325e-05
1.66083e-05
1.64179e-05
1.62097e-05
1.60232e-05
1.58172e-05
1.56193e-05
1.54063e-05
1.52142e-05
1.49964e-05
1.47985e-05
1.45698e-05
1.43642e-05
1.41093e-05
1.3856e-05
1.35896e-05
1.3363e-05
1.30655e-05
1.27464e-05
1.23936e-05
1.20393e-05
1.16001e-05
1.11169e-05
1.05591e-05
1.0019e-05
9.49575e-06
8.99402e-06
8.28479e-06
7.21647e-06
5.98313e-06
5.23641e-06
4.96619e-06
4.43675e-06
3.10575e-06
1.3466e-06
1.39982e-07
3.34625e-07
7.84508e-07
6.07633e-07
4.84399e-07
1.24053e-08
8.34381e-08
1.07714e-07
4.47146e-08
1.2779e-07
1.52452e-07
5.42943e-08
8.38839e-09
5.10092e-09
2.90287e-09
8.50792e-09
3.58827e-07
3.11515e-07
4.02681e-07
7.68462e-07
7.59338e-07
8.7938e-08
8.60378e-07
8.01488e-07
4.6417e-07
1.58532e-06
3.49638e-06
7.01233e-06
6.53579e-06
5.66512e-06
7.53718e-06
1.08962e-05
1.2824e-05
1.35942e-05
1.44261e-05
1.60608e-05
1.77009e-05
1.92237e-05
2.03304e-05
2.13581e-05
2.19764e-05
2.24817e-05
2.2794e-05
2.32438e-05
2.35712e-05
2.38501e-05
2.39537e-05
2.42174e-05
2.43974e-05
2.46656e-05
2.47624e-05
2.49541e-05
2.50824e-05
2.528e-05
2.53711e-05
2.55141e-05
2.56861e-05
2.58666e-05
2.59967e-05
2.60978e-05
2.62786e-05
2.63712e-05
2.65607e-05
2.66053e-05
2.67997e-05
2.68435e-05
2.70282e-05
2.7187e-05
2.72072e-05
2.75763e-05
2.73904e-05
2.79601e-05
2.76347e-05
2.82754e-05
2.78573e-05
2.86753e-05
2.78958e-05
2.92284e-05
2.78519e-05
2.98909e-05
2.76664e-05
3.07805e-05
2.53283e-05
2.62935e-05
2.99002e-05
3.24453e-05
3.17671e-05
3.10145e-05
3.05224e-05
2.99645e-05
2.95801e-05
2.92119e-05
2.88358e-05
2.84137e-05
2.79612e-05
2.7525e-05
2.70515e-05
2.66407e-05
2.61574e-05
2.56683e-05
2.51697e-05
2.48827e-05
2.45103e-05
2.40893e-05
2.35965e-05
2.32859e-05
2.29423e-05
2.26077e-05
2.21906e-05
2.18654e-05
2.15133e-05
2.12212e-05
2.08929e-05
2.06155e-05
2.03137e-05
2.00557e-05
1.97841e-05
1.95573e-05
1.93153e-05
1.91077e-05
1.88871e-05
1.86973e-05
1.84946e-05
1.83245e-05
1.81377e-05
1.79852e-05
1.78176e-05
1.76777e-05
1.75248e-05
1.74036e-05
1.72684e-05
1.71599e-05
1.70424e-05
1.69506e-05
1.68562e-05
1.67855e-05
1.671e-05
1.66555e-05
1.66058e-05
1.65843e-05
1.65708e-05
1.65839e-05
1.66112e-05
1.66554e-05
1.67281e-05
1.68329e-05
1.69734e-05
1.7153e-05
1.73707e-05
1.76221e-05
1.79095e-05
1.82407e-05
1.86193e-05
1.90443e-05
1.95288e-05
2.00347e-05
2.06419e-05
2.12242e-05
2.18901e-05
2.2532e-05
2.32233e-05
2.39093e-05
2.46697e-05
2.53728e-05
2.6899e-05
2.96518e-05
3.2484e-05
3.77214e-05
5.14714e-05
7.03813e-05
8.83956e-05
0.000103421
0.000114749
0.000120108
0.000121953
0.000116756
0.000106601
8.40828e-05
4.97257e-05
1.89536e-05
4.85799e-06
1.11815e-06
4.73024e-07
2.20033e-07
2.27962e-07
2.62178e-07
3.98308e-07
6.23109e-07
4.51616e-07
3.50356e-07
3.99941e-07
4.29639e-07
4.13269e-07
4.31279e-07
4.26683e-07
4.15995e-07
4.32708e-07
4.4229e-07
4.34608e-07
4.10777e-07
4.10485e-07
4.30285e-07
4.49212e-07
4.41301e-07
4.20233e-07
4.27138e-07
4.32763e-07
4.16006e-07
4.33468e-07
4.02817e-07
3.42727e-07
4.46383e-07
6.31122e-07
4.19007e-07
2.68214e-07
2.16256e-07
1.92e-07
4.03242e-07
5.99286e-07
1.47511e-06
6.05169e-06
2.14091e-05
4.41102e-05
5.39373e-05
5.16109e-05
5.12263e-05
4.71676e-05
4.3423e-05
3.96689e-05
3.64242e-05
3.40538e-05
3.24077e-05
3.11895e-05
3.12032e-05
3.08537e-05
3.06368e-05
3.07036e-05
3.03816e-05
3.05814e-05
3.02333e-05
3.04678e-05
3.01402e-05
3.03867e-05
3.00729e-05
3.03262e-05
3.00115e-05
3.02607e-05
2.99508e-05
3.02073e-05
2.99004e-05
3.01514e-05
2.98542e-05
3.0092e-05
2.97745e-05
3.00083e-05
2.97801e-05
3.00643e-05
2.98136e-05
2.99974e-05
2.9737e-05
2.99221e-05
2.97117e-05
2.9836e-05
2.96502e-05
2.98044e-05
2.96378e-05
2.97533e-05
2.96409e-05
2.97376e-05
2.96314e-05
2.97141e-05
2.96349e-05
2.96857e-05
2.96364e-05
2.96776e-05
2.96255e-05
2.96589e-05
2.96165e-05
2.9642e-05
2.96224e-05
2.96213e-05
2.95795e-05
2.95584e-05
2.95245e-05
2.95137e-05
2.94732e-05
2.9438e-05
2.9385e-05
2.93139e-05
2.92186e-05
2.91373e-05
2.90523e-05
2.89613e-05
2.88424e-05
2.87277e-05
2.8589e-05
2.84554e-05
2.82917e-05
2.81199e-05
2.79375e-05
2.774e-05
2.75125e-05
2.72404e-05
2.70319e-05
2.69165e-05
2.67097e-05
2.63581e-05
2.60094e-05
2.56896e-05
2.53399e-05
2.49821e-05
2.46087e-05
2.42191e-05
2.3812e-05
2.33997e-05
2.29966e-05
2.25802e-05
2.21483e-05
2.16908e-05
2.1264e-05
2.08246e-05
2.03855e-05
1.99393e-05
1.95417e-05
1.91365e-05
1.87476e-05
1.8312e-05
1.79832e-05
1.75254e-05
1.71817e-05
1.67717e-05
1.63704e-05
1.59873e-05
1.55839e-05
1.51568e-05
1.47638e-05
1.43388e-05
1.39345e-05
1.34879e-05
1.30537e-05
1.25968e-05
1.2179e-05
1.17001e-05
1.12422e-05
1.07235e-05
1.02219e-05
9.61403e-06
8.99407e-06
8.35352e-06
7.71291e-06
6.91284e-06
6.11051e-06
5.36446e-06
4.69549e-06
3.95627e-06
3.24625e-06
2.43441e-06
1.73853e-06
1.48075e-06
1.55005e-06
1.10324e-06
3.72343e-07
1.78064e-07
3.69787e-07
2.11429e-07
2.017e-07
3.23747e-07
2.38813e-07
8.11703e-08
4.69359e-08
1.37408e-07
1.03385e-08
8.53686e-08
1.43639e-07
1.03095e-07
5.56498e-08
1.87056e-07
1.33567e-07
1.33613e-07
8.97044e-08
8.70327e-08
4.15117e-09
3.75909e-09
3.78645e-08
7.69139e-07
1.22746e-06
1.23075e-06
1.16952e-06
1.17399e-06
1.39237e-06
1.20723e-06
1.23034e-06
1.41114e-06
1.17668e-06
1.07342e-06
1.96173e-06
1.99564e-06
1.13398e-06
1.1275e-06
2.39013e-06
2.92833e-06
2.49019e-06
2.24053e-06
3.28261e-06
4.42864e-06
5.59161e-06
6.69546e-06
8.21366e-06
9.50065e-06
1.06675e-05
1.16349e-05
1.28696e-05
1.41698e-05
1.53463e-05
1.61528e-05
1.70247e-05
1.78863e-05
1.88008e-05
1.95517e-05
2.01825e-05
2.08863e-05
2.14577e-05
2.20326e-05
2.24293e-05
2.3176e-05
2.37047e-05
2.44449e-05
2.47311e-05
2.55425e-05
2.57924e-05
2.66934e-05
2.68568e-05
2.76616e-05
2.78185e-05
2.84218e-05
2.89361e-05
2.91015e-05
3.01073e-05
2.97714e-05
3.11463e-05
3.06865e-05
3.1994e-05
3.16198e-05
3.30126e-05
3.22084e-05
3.39864e-05
3.29002e-05
3.48696e-05
3.37097e-05
3.56898e-05
3.43121e-05
3.15428e-05
4.00279e-05
4.99502e-05
5.7046e-05
6.16471e-05
6.39822e-05
6.44533e-05
6.43408e-05
6.37492e-05
6.30958e-05
6.22025e-05
6.13194e-05
6.03899e-05
5.94313e-05
5.85435e-05
5.75273e-05
5.64943e-05
5.54697e-05
5.48192e-05
5.39826e-05
5.30913e-05
5.2088e-05
5.1432e-05
5.06688e-05
4.99444e-05
4.90694e-05
4.83915e-05
4.76391e-05
4.70159e-05
4.63136e-05
4.57231e-05
4.50808e-05
4.45349e-05
4.39572e-05
4.34762e-05
4.29597e-05
4.25174e-05
4.20454e-05
4.16454e-05
4.1215e-05
4.0853e-05
4.04559e-05
4.01273e-05
3.97684e-05
3.94693e-05
3.91396e-05
3.88757e-05
3.85821e-05
3.83433e-05
3.8081e-05
3.78694e-05
3.76483e-05
3.74769e-05
3.73023e-05
3.71673e-05
3.70362e-05
3.69525e-05
3.6889e-05
3.68698e-05
3.68818e-05
3.69309e-05
3.70286e-05
3.71797e-05
3.73975e-05
3.76815e-05
3.80429e-05
3.84693e-05
3.89739e-05
3.95468e-05
4.02114e-05
4.09477e-05
4.17828e-05
4.26788e-05
4.36795e-05
4.47297e-05
4.58774e-05
4.70382e-05
4.8315e-05
4.95139e-05
5.09226e-05
5.23074e-05
5.45287e-05
5.72587e-05
6.09033e-05
6.64977e-05
7.66494e-05
0.000100015
0.000123922
0.000145288
0.000162259
0.000172546
0.000176484
0.000170988
0.000158127
0.000124006
8.26949e-05
2.51845e-05
6.9217e-06
1.49988e-06
4.42399e-07
1.84584e-07
2.22465e-07
2.5423e-07
3.89566e-07
6.20042e-07
4.52606e-07
3.52378e-07
3.99117e-07
4.30549e-07
4.11901e-07
4.24484e-07
4.22707e-07
4.14851e-07
4.31861e-07
4.43526e-07
4.34745e-07
4.09145e-07
4.09092e-07
4.28107e-07
4.52349e-07
4.44794e-07
4.21543e-07
4.24883e-07
4.26918e-07
4.15412e-07
4.35897e-07
4.03505e-07
3.4133e-07
4.43899e-07
6.31758e-07
4.205e-07
2.62343e-07
1.96906e-07
1.35726e-07
3.42016e-07
6.24238e-07
1.24433e-06
4.22875e-06
1.64412e-05
3.83496e-05
5.18735e-05
5.1569e-05
5.24209e-05
5.03483e-05
4.75812e-05
4.54613e-05
4.3231e-05
4.17698e-05
4.05557e-05
4.00595e-05
3.93901e-05
3.93434e-05
3.88981e-05
3.89943e-05
3.86516e-05
3.87949e-05
3.84997e-05
3.86491e-05
3.83919e-05
3.8537e-05
3.83078e-05
3.84444e-05
3.82308e-05
3.83561e-05
3.81536e-05
3.82752e-05
3.80789e-05
3.8197e-05
3.79996e-05
3.81131e-05
3.79071e-05
3.80321e-05
3.78669e-05
3.80308e-05
3.78369e-05
3.7935e-05
3.77258e-05
3.78237e-05
3.76317e-05
3.77034e-05
3.75247e-05
3.76172e-05
3.74499e-05
3.75212e-05
3.73854e-05
3.7439e-05
3.73059e-05
3.73444e-05
3.72268e-05
3.7238e-05
3.71385e-05
3.7133e-05
3.7027e-05
3.70077e-05
3.69037e-05
3.68691e-05
3.67739e-05
3.67021e-05
3.65784e-05
3.64782e-05
3.6353e-05
3.62484e-05
3.61021e-05
3.59602e-05
3.57844e-05
3.55908e-05
3.5363e-05
3.51483e-05
3.49116e-05
3.46685e-05
3.43827e-05
3.41005e-05
3.37771e-05
3.34571e-05
3.30945e-05
3.27228e-05
3.23283e-05
3.1913e-05
3.14631e-05
3.09785e-05
3.05347e-05
3.01495e-05
2.96791e-05
2.90927e-05
2.84761e-05
2.78708e-05
2.7224e-05
2.65781e-05
2.59113e-05
2.52403e-05
2.45351e-05
2.38446e-05
2.31678e-05
2.25008e-05
2.17965e-05
2.10935e-05
2.04301e-05
1.97878e-05
1.91179e-05
1.84955e-05
1.79006e-05
1.73537e-05
1.67702e-05
1.62044e-05
1.56972e-05
1.50932e-05
1.45976e-05
1.3995e-05
1.345e-05
1.28784e-05
1.23247e-05
1.16916e-05
1.11299e-05
1.04959e-05
9.88634e-06
9.18662e-06
8.4868e-06
7.7256e-06
7.01081e-06
6.21774e-06
5.49849e-06
4.72622e-06
4.01459e-06
3.23959e-06
2.64684e-06
2.18735e-06
1.75117e-06
1.20657e-06
9.96464e-07
9.4284e-07
7.65808e-07
5.39557e-07
5.43656e-07
3.39012e-07
2.07848e-07
2.3965e-07
3.19083e-07
2.25574e-07
1.98644e-07
2.07638e-07
2.1591e-07
1.91194e-07
2.96061e-07
1.79193e-07
1.43938e-07
1.49862e-07
1.09755e-07
9.60316e-08
1.62913e-07
8.19401e-08
1.33271e-07
1.03251e-07
1.28047e-07
3.69086e-08
1.61132e-08
9.81897e-08
1.74487e-07
1.16178e-07
8.76066e-09
2.3574e-08
7.1457e-07
1.62855e-06
1.40999e-06
1.23958e-06
1.16345e-06
1.06379e-06
1.2618e-06
1.14401e-06
1.15988e-06
1.30068e-06
1.26986e-06
1.11501e-06
1.41735e-06
1.43279e-06
1.27107e-06
1.20517e-06
1.40066e-06
1.39738e-06
1.32571e-06
1.05643e-06
1.32412e-06
1.42988e-06
1.49895e-06
1.55644e-06
2.03979e-06
2.30105e-06
2.72224e-06
3.11584e-06
3.5641e-06
4.38615e-06
5.48118e-06
6.26452e-06
6.97419e-06
7.95068e-06
9.2978e-06
1.06565e-05
1.16724e-05
1.29351e-05
1.38685e-05
1.4985e-05
1.5695e-05
1.70396e-05
1.79397e-05
1.92882e-05
1.97651e-05
2.11335e-05
2.15486e-05
2.30651e-05
2.34185e-05
2.47226e-05
2.50507e-05
2.60314e-05
2.68441e-05
2.72282e-05
2.86484e-05
2.83951e-05
3.01575e-05
2.99183e-05
3.14261e-05
3.14862e-05
3.2874e-05
3.2745e-05
3.41024e-05
3.41987e-05
3.51559e-05
3.57155e-05
3.63907e-05
3.81413e-05
3.53496e-05
4.50078e-05
5.94451e-05
7.21257e-05
8.14618e-05
8.74951e-05
9.09323e-05
9.29149e-05
9.4032e-05
9.44381e-05
9.42984e-05
9.37745e-05
9.30511e-05
9.20915e-05
9.11157e-05
8.98607e-05
8.8478e-05
8.71054e-05
8.62216e-05
8.50196e-05
8.36966e-05
8.22577e-05
8.12995e-05
8.01444e-05
7.90223e-05
7.77075e-05
7.66847e-05
7.5538e-05
7.45695e-05
7.34881e-05
7.25753e-05
7.15796e-05
7.0732e-05
6.98383e-05
6.90906e-05
6.82856e-05
6.75944e-05
6.68589e-05
6.62352e-05
6.55634e-05
6.49962e-05
6.43784e-05
6.38631e-05
6.32972e-05
6.28278e-05
6.23096e-05
6.18878e-05
6.14239e-05
6.10446e-05
6.06239e-05
6.0274e-05
5.99085e-05
5.96233e-05
5.93358e-05
5.91079e-05
5.88813e-05
5.8716e-05
5.85786e-05
5.8506e-05
5.84793e-05
5.8513e-05
5.86114e-05
5.8781e-05
5.90368e-05
5.93887e-05
5.98473e-05
6.04093e-05
6.10846e-05
6.18589e-05
6.27521e-05
6.37446e-05
6.48589e-05
6.60659e-05
6.73938e-05
6.87941e-05
7.02951e-05
7.1827e-05
7.34501e-05
7.50418e-05
7.67653e-05
7.85408e-05
8.07698e-05
8.38276e-05
8.77718e-05
9.37275e-05
0.000104353
0.000125311
0.000152758
0.000178046
0.000199293
0.000214409
0.000221859
0.000218486
0.000205814
0.000165797
0.000123446
4.14553e-05
8.60323e-06
1.84437e-06
5.67449e-07
2.33405e-07
2.36799e-07
2.58732e-07
3.86829e-07
6.18128e-07
4.54833e-07
3.53802e-07
3.99776e-07
4.28625e-07
4.12714e-07
4.29997e-07
4.26752e-07
4.15316e-07
4.3054e-07
4.48145e-07
4.34324e-07
4.11159e-07
4.10555e-07
4.29535e-07
4.51447e-07
4.47278e-07
4.23158e-07
4.25775e-07
4.33446e-07
4.16327e-07
4.35818e-07
4.05062e-07
3.39498e-07
4.43368e-07
6.34451e-07
4.28336e-07
2.69293e-07
2.08297e-07
1.82397e-07
3.91076e-07
5.39897e-07
9.12338e-07
2.8445e-06
1.1899e-05
3.20266e-05
4.85386e-05
5.06854e-05
5.22763e-05
5.22864e-05
5.05652e-05
4.96297e-05
4.81474e-05
4.73859e-05
4.65359e-05
4.61335e-05
4.56813e-05
4.55049e-05
4.52251e-05
4.51652e-05
4.49708e-05
4.49639e-05
4.48095e-05
4.48235e-05
4.46889e-05
4.47128e-05
4.45874e-05
4.46175e-05
4.44931e-05
4.45247e-05
4.43997e-05
4.44324e-05
4.43054e-05
4.43399e-05
4.42044e-05
4.42387e-05
4.40979e-05
4.41436e-05
4.40188e-05
4.40875e-05
4.39362e-05
4.39619e-05
4.37923e-05
4.38147e-05
4.3645e-05
4.36568e-05
4.34899e-05
4.35133e-05
4.33493e-05
4.33598e-05
4.32076e-05
4.32015e-05
4.30443e-05
4.30225e-05
4.28675e-05
4.28203e-05
4.26691e-05
4.25995e-05
4.24345e-05
4.23449e-05
4.21704e-05
4.20564e-05
4.18745e-05
4.17165e-05
4.15e-05
4.13049e-05
4.10717e-05
4.0854e-05
4.0586e-05
4.03183e-05
4.00051e-05
3.9676e-05
3.93023e-05
3.89369e-05
3.85293e-05
3.81165e-05
3.7647e-05
3.71789e-05
3.66545e-05
3.61315e-05
3.55578e-05
3.49739e-05
3.43571e-05
3.37171e-05
3.30424e-05
3.23417e-05
3.16318e-05
3.09437e-05
3.0213e-05
2.94141e-05
2.85353e-05
2.76553e-05
2.67245e-05
2.58133e-05
2.48788e-05
2.39624e-05
2.29922e-05
2.20696e-05
2.11649e-05
2.02963e-05
1.93617e-05
1.84687e-05
1.76092e-05
1.68078e-05
1.59265e-05
1.51646e-05
1.4374e-05
1.37078e-05
1.29317e-05
1.22619e-05
1.15645e-05
1.08435e-05
1.01486e-05
9.34771e-06
8.60036e-06
7.78427e-06
7.0062e-06
6.09435e-06
5.33415e-06
4.48336e-06
3.78072e-06
3.00663e-06
2.41101e-06
1.86619e-06
1.51319e-06
1.12209e-06
9.90538e-07
7.94811e-07
6.58174e-07
3.81951e-07
3.63648e-07
3.80956e-07
4.33919e-07
3.79331e-07
5.01411e-07
5.047e-07
5.08202e-07
4.28597e-07
3.90129e-07
3.01169e-07
3.93203e-07
3.18429e-07
3.4381e-07
2.97992e-07
3.24568e-07
2.90575e-07
2.98619e-07
2.69027e-07
2.92041e-07
1.89652e-07
1.98429e-07
1.2327e-07
1.85799e-07
2.21974e-07
2.24123e-07
2.38666e-07
1.67627e-07
1.44307e-07
8.85321e-08
1.79589e-07
9.71532e-09
1.32924e-07
2.69468e-07
3.05802e-08
8.22399e-09
2.71941e-09
1.07932e-06
1.39767e-06
5.22609e-07
6.52375e-07
5.21476e-07
5.89935e-07
6.27431e-07
6.43487e-07
6.7315e-07
8.06779e-07
8.26183e-07
8.63316e-07
8.44861e-07
9.3487e-07
8.80559e-07
9.53255e-07
8.80443e-07
9.55561e-07
8.43492e-07
8.75611e-07
8.14266e-07
8.91429e-07
8.08154e-07
8.75724e-07
8.71274e-07
1.04478e-06
9.04503e-07
1.28048e-06
1.07696e-06
1.35422e-06
1.48835e-06
1.84521e-06
1.69832e-06
2.08302e-06
2.32077e-06
3.28494e-06
3.43399e-06
4.3276e-06
4.76058e-06
5.92935e-06
6.25118e-06
7.82814e-06
8.89739e-06
1.08745e-05
1.1563e-05
1.35282e-05
1.41885e-05
1.63594e-05
1.69841e-05
1.87722e-05
1.92814e-05
2.0617e-05
2.16941e-05
2.24176e-05
2.40926e-05
2.41573e-05
2.60331e-05
2.62768e-05
2.77167e-05
2.84925e-05
2.95995e-05
3.04142e-05
3.11325e-05
3.25151e-05
3.2569e-05
3.45703e-05
3.40142e-05
3.83286e-05
3.7313e-05
4.68878e-05
6.43361e-05
8.19338e-05
9.58752e-05
0.000105733
0.00011239
0.000116949
0.000120406
0.000122668
0.000124187
0.000124898
0.000125254
0.000125062
0.000124704
0.000123816
0.00012256
0.000121207
0.000120434
0.000119205
0.000117636
0.000115894
0.000114746
0.000113336
0.00011188
0.000110176
0.000108827
0.000107318
0.000106008
0.000104555
0.000103311
0.00010196
0.000100793
9.95732e-05
9.85379e-05
9.74294e-05
9.64713e-05
9.54542e-05
9.45859e-05
9.3653e-05
9.28608e-05
9.20026e-05
9.12837e-05
9.04902e-05
8.98278e-05
8.90977e-05
8.84998e-05
8.78429e-05
8.73004e-05
8.66965e-05
8.61876e-05
8.56506e-05
8.52296e-05
8.48059e-05
8.44641e-05
8.4115e-05
8.38407e-05
8.36007e-05
8.34464e-05
8.33536e-05
8.33424e-05
8.34107e-05
8.35686e-05
8.38284e-05
8.42102e-05
8.47285e-05
8.53858e-05
8.61883e-05
8.7118e-05
8.81883e-05
8.93843e-05
9.07175e-05
9.21639e-05
9.37417e-05
9.54021e-05
9.71624e-05
9.89651e-05
0.000100834
0.00010271
0.000104675
0.000106726
0.000109105
0.000112052
0.00011602
0.000121944
0.000132072
0.000149739
0.000178819
0.000206804
0.000231628
0.000251297
0.000263111
0.000263395
0.000252524
0.000210059
0.000168304
7.93327e-05
1.38356e-05
2.41699e-06
5.69665e-07
2.07871e-07
2.35256e-07
2.52696e-07
3.79152e-07
6.15415e-07
4.55367e-07
3.55428e-07
3.9928e-07
4.29744e-07
4.09431e-07
4.2377e-07
4.21881e-07
4.15262e-07
4.29228e-07
4.43596e-07
4.33138e-07
4.09046e-07
4.09678e-07
4.29202e-07
4.46679e-07
4.49898e-07
4.2417e-07
4.23912e-07
4.28545e-07
4.16605e-07
4.37017e-07
4.06476e-07
3.38677e-07
4.40716e-07
6.34591e-07
4.30449e-07
2.63049e-07
1.86339e-07
1.22927e-07
3.34822e-07
5.95613e-07
8.72472e-07
1.86181e-06
8.0787e-06
2.51573e-05
4.37526e-05
4.88011e-05
5.09719e-05
5.26641e-05
5.18844e-05
5.18472e-05
5.10596e-05
5.07575e-05
5.02706e-05
5.00469e-05
4.97651e-05
4.96237e-05
4.94508e-05
4.93716e-05
4.92553e-05
4.92161e-05
4.9125e-05
4.91061e-05
4.90261e-05
4.90158e-05
4.89397e-05
4.8934e-05
4.88558e-05
4.88505e-05
4.8769e-05
4.87627e-05
4.86758e-05
4.86692e-05
4.85723e-05
4.85648e-05
4.84625e-05
4.84579e-05
4.83568e-05
4.83616e-05
4.82397e-05
4.82155e-05
4.80731e-05
4.80403e-05
4.78894e-05
4.78491e-05
4.76911e-05
4.76515e-05
4.74879e-05
4.74352e-05
4.72675e-05
4.71973e-05
4.70154e-05
4.69252e-05
4.67335e-05
4.66161e-05
4.64124e-05
4.62669e-05
4.60399e-05
4.58673e-05
4.56165e-05
4.54094e-05
4.51348e-05
4.48789e-05
4.45617e-05
4.42597e-05
4.39072e-05
4.35633e-05
4.31619e-05
4.27567e-05
4.22965e-05
4.18229e-05
4.12934e-05
4.07646e-05
4.01737e-05
3.95795e-05
3.89148e-05
3.8249e-05
3.75141e-05
3.678e-05
3.59893e-05
3.51884e-05
3.43465e-05
3.34812e-05
3.25813e-05
3.16601e-05
3.06643e-05
2.96718e-05
2.87011e-05
2.77089e-05
2.6582e-05
2.54528e-05
2.42618e-05
2.31192e-05
2.1952e-05
2.0831e-05
1.96358e-05
1.85324e-05
1.74435e-05
1.64136e-05
1.5285e-05
1.4248e-05
1.32201e-05
1.22876e-05
1.11957e-05
1.029e-05
9.25942e-06
8.42994e-06
7.38072e-06
6.55972e-06
5.62907e-06
4.83123e-06
4.01093e-06
3.20469e-06
2.55044e-06
2.05299e-06
1.6371e-06
1.16454e-06
9.39886e-07
6.14839e-07
5.07828e-07
2.58136e-07
2.80836e-07
2.20716e-07
2.82147e-07
2.08343e-07
3.31281e-07
2.43849e-07
2.88202e-07
1.49846e-07
2.52836e-07
2.47798e-07
3.66739e-07
3.71762e-07
4.65959e-07
4.26644e-07
4.39069e-07
3.35267e-07
3.09033e-07
2.52767e-07
2.7396e-07
2.15651e-07
2.72764e-07
2.47512e-07
2.56879e-07
2.37519e-07
2.57569e-07
2.70255e-07
2.07451e-07
1.61662e-07
1.39963e-07
2.02425e-07
1.80145e-07
2.15698e-07
1.31912e-07
1.86997e-07
8.57735e-08
2.1294e-07
7.69861e-08
2.14997e-07
1.35698e-07
7.19945e-08
7.15486e-08
1.57263e-08
5.1925e-09
8.8666e-08
1.2477e-06
1.01679e-06
3.14612e-07
9.48012e-07
5.77244e-07
8.87616e-07
6.6714e-07
8.89259e-07
7.12521e-07
9.76704e-07
7.60546e-07
1.07737e-06
8.33707e-07
1.16697e-06
8.28255e-07
1.1614e-06
7.95314e-07
1.13884e-06
7.47233e-07
1.07273e-06
6.89451e-07
1.07376e-06
6.03364e-07
1.08238e-06
5.73699e-07
1.23056e-06
6.59421e-07
1.37998e-06
8.34493e-07
1.46538e-06
9.69334e-07
1.6819e-06
9.80125e-07
1.78257e-06
1.06329e-06
1.8642e-06
1.20167e-06
2.02502e-06
1.23902e-06
2.33152e-06
1.58005e-06
2.50582e-06
2.09636e-06
3.81037e-06
3.46876e-06
5.1304e-06
5.10986e-06
7.54047e-06
8.15687e-06
1.02887e-05
1.08215e-05
1.25201e-05
1.38203e-05
1.50871e-05
1.68868e-05
1.753e-05
1.92957e-05
2.02559e-05
2.14415e-05
2.30551e-05
2.38008e-05
2.56056e-05
2.57696e-05
2.82272e-05
2.77265e-05
3.0678e-05
2.96026e-05
3.5398e-05
3.76358e-05
4.68698e-05
6.56153e-05
8.71171e-05
0.000105364
0.000119086
0.000129056
0.000136357
0.000142259
0.000146595
0.000150026
0.000152343
0.000154192
0.00015525
0.000156011
0.000156037
0.000155448
0.0001546
0.000154397
0.000153674
0.000152289
0.000150576
0.000149515
0.000148206
0.00014668
0.000144802
0.000143268
0.000141568
0.000140033
0.000138335
0.000136835
0.000135218
0.000133786
0.000132304
0.00013102
0.000129652
0.000128453
0.000127187
0.00012609
0.000124923
0.000123917
0.000122833
0.000121914
0.000120905
0.000120052
0.000119118
0.000118342
0.000117495
0.000116787
0.000115992
0.000115317
0.000114601
0.000114033
0.000113461
0.000112992
0.000112505
0.000112107
0.000111739
0.00011148
0.000111294
0.000111213
0.000111217
0.000111329
0.00011156
0.000111931
0.000112467
0.000113174
0.000114056
0.000115092
0.000116285
0.000117621
0.000119111
0.000120727
0.000122474
0.000124309
0.000126231
0.000128194
0.000130203
0.000132218
0.000134292
0.000136445
0.00013882
0.000141672
0.000145558
0.000151048
0.000160432
0.000176179
0.000202598
0.000232501
0.000260247
0.000283883
0.000300228
0.000304977
0.000297008
0.000254648
0.000214262
0.000128733
2.2587e-05
3.41517e-06
7.61902e-07
2.63054e-07
2.4945e-07
2.58229e-07
3.76812e-07
6.13395e-07
4.57921e-07
3.55999e-07
4.00216e-07
4.27183e-07
4.12216e-07
4.29452e-07
4.2749e-07
4.14545e-07
4.28697e-07
4.44323e-07
4.34409e-07
4.10309e-07
4.10481e-07
4.29037e-07
4.43332e-07
4.4847e-07
4.25539e-07
4.25349e-07
4.34957e-07
4.1547e-07
4.36295e-07
4.08387e-07
3.37436e-07
4.39835e-07
6.35934e-07
4.39553e-07
2.72665e-07
2.03027e-07
1.76725e-07
3.80985e-07
5.24952e-07
7.08542e-07
1.22485e-06
5.03553e-06
1.84353e-05
3.75365e-05
4.57594e-05
4.84741e-05
5.14966e-05
5.16666e-05
5.2259e-05
5.21102e-05
5.21426e-05
5.20192e-05
5.19584e-05
5.18766e-05
5.18132e-05
5.1758e-05
5.17115e-05
5.16731e-05
5.16424e-05
5.16118e-05
5.15901e-05
5.15605e-05
5.1543e-05
5.15104e-05
5.14946e-05
5.14559e-05
5.14384e-05
5.1392e-05
5.13714e-05
5.13167e-05
5.12922e-05
5.12261e-05
5.11974e-05
5.11224e-05
5.10882e-05
5.10055e-05
5.0969e-05
5.08681e-05
5.08103e-05
5.06881e-05
5.06164e-05
5.04802e-05
5.03961e-05
5.02438e-05
5.01487e-05
4.99813e-05
4.98674e-05
4.9683e-05
4.95475e-05
4.93388e-05
4.91762e-05
4.8946e-05
4.87515e-05
4.84939e-05
4.82641e-05
4.79717e-05
4.77072e-05
4.73751e-05
4.70656e-05
4.66939e-05
4.63308e-05
4.59072e-05
4.54879e-05
4.5008e-05
4.45291e-05
4.39867e-05
4.34355e-05
4.28225e-05
4.21973e-05
4.15047e-05
4.08042e-05
4.00222e-05
3.92392e-05
3.83732e-05
3.75041e-05
3.65556e-05
3.56093e-05
3.46023e-05
3.3586e-05
3.25222e-05
3.1436e-05
3.03147e-05
2.91738e-05
2.78918e-05
2.66189e-05
2.54359e-05
2.42713e-05
2.29212e-05
2.15793e-05
2.01611e-05
1.88269e-05
1.7462e-05
1.61728e-05
1.47898e-05
1.35412e-05
1.22812e-05
1.10815e-05
9.70853e-06
8.48314e-06
7.19696e-06
6.12453e-06
4.83875e-06
4.00025e-06
2.99571e-06
2.49236e-06
1.64891e-06
1.49322e-06
9.65521e-07
9.57566e-07
5.4691e-07
5.71144e-07
3.41632e-07
5.78844e-07
3.15668e-07
4.99741e-07
2.57811e-07
3.69755e-07
1.84947e-07
3.21352e-07
1.66271e-07
3.96594e-07
2.40367e-07
4.51107e-07
3.16701e-07
4.68553e-07
2.69841e-07
3.8611e-07
2.85788e-07
4.90741e-07
4.13319e-07
6.05132e-07
4.73996e-07
6.06554e-07
4.19066e-07
4.84452e-07
2.9133e-07
4.17032e-07
2.95287e-07
4.4463e-07
3.33815e-07
4.15669e-07
2.67483e-07
4.06822e-07
3.01687e-07
3.93785e-07
2.11155e-07
2.94978e-07
1.8314e-07
2.7957e-07
1.32243e-07
2.29771e-07
1.00219e-07
1.82143e-07
5.63459e-08
1.46861e-07
1.53131e-07
2.35247e-07
2.49191e-07
5.6568e-08
1.16136e-07
3.24289e-08
7.48083e-09
7.23111e-08
1.30245e-06
7.29378e-07
4.65752e-07
8.50846e-07
2.02589e-07
6.62403e-07
2.18738e-07
7.11035e-07
2.97966e-07
7.79921e-07
3.10844e-07
9.01515e-07
4.05665e-07
9.75921e-07
3.75979e-07
9.76931e-07
3.7454e-07
9.70354e-07
2.87983e-07
8.75571e-07
2.21262e-07
8.84963e-07
1.31797e-07
8.71264e-07
6.97074e-08
9.67607e-07
1.52971e-07
1.1182e-06
3.6391e-07
1.32649e-06
5.80765e-07
1.56486e-06
6.48876e-07
1.69984e-06
7.43452e-07
1.73598e-06
7.90988e-07
1.84407e-06
7.29936e-07
1.90964e-06
7.20733e-07
1.83521e-06
6.1204e-07
2.04045e-06
8.06239e-07
2.3186e-06
1.08559e-06
2.80104e-06
2.22915e-06
3.96449e-06
3.28874e-06
4.52912e-06
4.99705e-06
6.42938e-06
7.7138e-06
8.89189e-06
1.0246e-05
1.2061e-05
1.29817e-05