/*--------------------------------*- C++ -*----------------------------------*\
| =========                 |                                                 |
| \\      /  F ield         | OpenFOAM: The Open Source CFD Toolbox           |
|  \\    /   O peration     | Version:  v2006                                 |
|   \\  /    A nd           | Website:  www.openfoam.com                      |
|    \\/     M anipulation  |                                                 |
\*---------------------------------------------------------------------------*/
FoamFile
{
    version     2.0;
    format      ascii;
    class       volScalarField;
    location    "185";
    object      p;
}
// * * * * * * * * * * * * * * * * * * * * * * * * * * * * * * * * * * * * * //

dimensions      [1 -1 -2 0 0 0 0];


internalField   nonuniform List<scalar> 
93840
(
1.11514
1.05838
1.10642
1.08054
1.05474
1.0705
1.04026
1.06935
1.04779
1.07166
1.04313
1.05633
1.04209
1.05484
1.04961
1.05912
1.05742
1.06391
1.05962
1.05908
1.05308
1.04906
1.03941
1.0335
1.0275
1.02422
1.01953
1.01904
1.01266
1.01548
1.00689
1.03528
1.00949
1.01929
1.02761
1.03382
1.03798
1.04302
1.0466
1.0513
1.05373
1.05783
1.05945
1.0626
1.0648
1.06799
1.07023
1.07283
1.07451
1.07744
1.07887
1.08061
1.08303
1.086
1.0864
1.08678
1.08828
1.08916
1.0911
1.09363
1.09458
1.09561
1.09678
1.0971
1.09748
1.09819
1.09802
1.09756
1.09724
1.09754
1.09732
1.0974
1.09624
1.09559
1.09463
1.09369
1.0925
1.09141
1.08971
1.08843
1.08694
1.08552
1.08376
1.08167
1.07937
1.07717
1.07453
1.07206
1.06935
1.06651
1.06294
1.05915
1.05536
1.05133
1.04713
1.04253
1.03789
1.03309
1.02812
1.02272
1.01718
1.01168
1.00612
0.996526
0.986592
0.983136
0.980328
0.972765
0.964428
0.956035
0.94782
0.939568
0.931678
0.921975
0.9134
0.904831
0.897329
0.88847
0.881918
0.875249
0.870921
0.865332
0.864497
0.861598
0.865262
0.869855
0.868692
0.882442
0.882617
0.889223
0.898377
0.90327
0.913929
0.919532
0.92624
0.935165
0.941514
0.950497
0.955877
0.962792
0.968819
0.9743
0.981943
0.988442
0.994665
0.999584
1.00595
1.01131
1.018
1.02478
1.03164
1.03807
1.04486
1.0519
1.05952
1.06664
1.07512
1.08289
1.09263
1.10095
1.10961
1.11699
1.12574
1.13576
1.14628
1.15747
1.16955
1.18154
1.19346
1.20748
1.22317
1.24
1.25587
1.27332
1.29166
1.31304
1.33509
1.36162
1.38418
1.40806
1.41879
1.42774
1.39278
1.30215
1.16099
1.01275
0.856376
0.757315
0.725141
0.738111
0.658668
0.606006
0.555451
0.532491
0.509676
0.498458
0.494626
0.485367
0.481359
0.479825
0.479038
0.480722
0.482108
0.481737
0.483986
0.485082
0.487692
0.488617
0.490196
0.49053
0.491744
0.492343
0.492274
0.490307
0.491252
0.492236
0.49241
0.492594
0.492814
0.492215
0.487115
0.486848
0.488461
0.4883
0.488395
0.488856
0.489514
0.489609
0.490906
0.491939
0.489612
0.48587
0.48478
0.479837
0.479812
0.476124
0.474649
0.474293
0.474138
0.473101
0.471185
0.468639
0.467092
0.462117
0.462167
0.457358
0.45711
0.450416
0.457698
0.479137
0.568139
0.69942
0.757836
0.771792
0.782036
0.792975
0.804188
0.813963
0.824075
0.832673
0.842338
0.849902
0.858358
0.864729
0.871806
0.877459
0.883756
0.889198
0.894762
0.899812
0.90507
0.910047
0.9146
0.918867
0.922899
0.926893
0.930485
0.933982
0.937173
0.940316
0.943173
0.945942
0.948467
0.950895
0.95313
0.955281
0.957293
0.959215
0.961041
0.962749
0.964398
0.96588
0.967359
0.968626
0.969952
0.97103
0.972241
0.97317
0.974307
0.975122
0.976206
0.976922
0.977973
0.978624
0.979671
0.980252
0.981263
0.98177
0.982763
0.983223
0.984218
0.984646
0.985644
0.986025
0.987013
0.987366
0.988385
0.988744
0.989803
0.990159
0.991241
0.991582
0.992682
0.993067
0.994206
0.994548
0.995776
0.996
0.997286
0.997429
0.99784
0.998192
1.00248
0.999444
1.00341
0.990331
0.989185
1.00397
1.0097
1.01311
1.01676
1.0223
1.02654
1.03218
1.03603
1.04203
1.04981
1.05361
1.05925
1.0596
1.06397
1.0571
1.05924
1.04963
1.05482
1.04208
1.05653
1.04284
1.07206
1.047
1.06879
1.03857
1.0703
1.05434
1.08056
1.10631
1.05769
1.11478
1.11489
1.0577
1.10635
1.08051
1.05434
1.07035
1.03865
1.06884
1.04697
1.07201
1.04279
1.05651
1.04203
1.05481
1.04963
1.05899
1.05719
1.06371
1.05934
1.05886
1.05338
1.04938
1.04157
1.03594
1.03213
1.02699
1.02148
1.01787
1.01533
1.01363
1.00947
1.01074
1.01494
1.02327
1.02675
1.03445
1.03671
1.04284
1.04543
1.05041
1.05256
1.05707
1.05861
1.06201
1.06425
1.06724
1.06947
1.07209
1.07398
1.07669
1.07835
1.08021
1.08249
1.08496
1.08559
1.08648
1.08808
1.08894
1.09057
1.09296
1.09416
1.09515
1.09622
1.09667
1.0971
1.0978
1.09758
1.09733
1.09692
1.09726
1.09706
1.09709
1.09601
1.09533
1.09441
1.09347
1.0923
1.0912
1.08955
1.08827
1.08678
1.08535
1.08358
1.08153
1.07925
1.07704
1.07442
1.07195
1.06922
1.06637
1.06283
1.05907
1.05528
1.05125
1.04706
1.04248
1.03785
1.03306
1.02808
1.02271
1.01718
1.01165
1.00603
0.996626
0.986915
0.983305
0.980262
0.972776
0.964569
0.956221
0.948041
0.939807
0.931925
0.922295
0.913808
0.905267
0.897782
0.889021
0.882538
0.875931
0.871596
0.866152
0.865317
0.862454
0.866062
0.870618
0.869638
0.883147
0.883485
0.89012
0.899063
0.903932
0.914472
0.920082
0.926774
0.935635
0.941857
0.950902
0.956295
0.963296
0.969499
0.974974
0.982545
0.989067
0.995135
1.00024
1.00675
1.01212
1.01882
1.02555
1.03257
1.03897
1.04582
1.05306
1.06061
1.06807
1.07644
1.08429
1.094
1.10218
1.11112
1.11897
1.12803
1.13845
1.14883
1.16028
1.17241
1.18554
1.1983
1.21204
1.22639
1.24445
1.26128
1.27893
1.29702
1.31818
1.33762
1.35993
1.38013
1.39955
1.40386
1.40939
1.38223
1.32452
1.2259
1.11098
0.977879
0.867361
0.802614
0.784379
0.709578
0.653078
0.594119
0.566584
0.539186
0.520656
0.510233
0.49951
0.492096
0.487579
0.486536
0.48626
0.486528
0.486628
0.488297
0.488836
0.490526
0.491128
0.492604
0.493153
0.494274
0.494129
0.49371
0.493279
0.492949
0.492997
0.493698
0.493567
0.494273
0.493794
0.488237
0.488271
0.489631
0.489231
0.488832
0.48908
0.489958
0.490384
0.491447
0.492483
0.490215
0.486309
0.48573
0.480777
0.47991
0.47645
0.475419
0.474601
0.474278
0.473128
0.471699
0.469058
0.467476
0.462482
0.462668
0.457754
0.457584
0.450793
0.45801
0.479442
0.567902
0.69965
0.7615
0.772128
0.782193
0.793046
0.804223
0.813988
0.824118
0.8327
0.842359
0.849915
0.858372
0.864746
0.87182
0.877475
0.883778
0.889224
0.894769
0.899801
0.905079
0.910077
0.914617
0.918862
0.9229
0.926914
0.930508
0.933995
0.937182
0.940327
0.943186
0.945955
0.94848
0.950909
0.953142
0.955292
0.957304
0.959228
0.961055
0.962761
0.964411
0.965893
0.967371
0.968638
0.969964
0.971042
0.972253
0.973181
0.974316
0.97513
0.976215
0.976935
0.97799
0.978637
0.979675
0.980249
0.981259
0.981767
0.98276
0.983219
0.984207
0.984626
0.985614
0.985991
0.986978
0.987329
0.988339
0.988679
0.989709
0.990037
0.991079
0.991392
0.992418
0.992755
0.993687
0.994
0.994869
0.995023
0.99597
0.995777
0.996217
0.995664
0.995493
0.995672
0.998485
0.986017
1.00091
0.995463
1.00279
1.00199
1.01003
1.01369
1.02046
1.02544
1.03194
1.03868
1.04895
1.05321
1.0594
1.0599
1.06393
1.05735
1.05924
1.0496
1.05484
1.04215
1.05635
1.04319
1.0717
1.04778
1.06931
1.04024
1.07056
1.05473
1.08053
1.10648
1.05833
1.11503
1.11504
1.05837
1.10654
1.08062
1.05476
1.07053
1.04024
1.06941
1.04777
1.07161
1.04307
1.05631
1.04202
1.05482
1.04958
1.05897
1.05729
1.06357
1.05932
1.05868
1.05296
1.04902
1.03978
1.03454
1.02845
1.02551
1.02296
1.02292
1.01978
1.02137
1.02185
1.02514
1.01608
1.0323
1.02735
1.03792
1.03686
1.04452
1.04514
1.05123
1.05227
1.0571
1.0585
1.06185
1.06411
1.06711
1.06929
1.07195
1.07381
1.07642
1.07823
1.07994
1.08227
1.08464
1.08532
1.08611
1.08774
1.08897
1.09047
1.0926
1.0939
1.09488
1.09596
1.09644
1.09686
1.09753
1.09742
1.09714
1.09692
1.09708
1.09692
1.09684
1.09583
1.09519
1.09428
1.09337
1.09216
1.09109
1.08943
1.08816
1.08667
1.08524
1.08348
1.08143
1.07916
1.07696
1.07435
1.07187
1.06914
1.06629
1.06275
1.05901
1.05522
1.0512
1.04702
1.04244
1.03782
1.03303
1.02806
1.0227
1.01717
1.01164
1.006
0.996649
0.987057
0.983409
0.980277
0.9728
0.964649
0.956325
0.948171
0.939954
0.932066
0.922489
0.914052
0.905561
0.898084
0.889351
0.882934
0.876326
0.872047
0.866584
0.86588
0.86323
0.866797
0.87114
0.870088
0.88343
0.883732
0.890397
0.89936
0.904336
0.914832
0.920581
0.927355
0.936281
0.942533
0.95137
0.95673
0.963628
0.969675
0.975179
0.982664
0.989284
0.995682
1.00061
1.007
1.01261
1.01931
1.02611
1.03299
1.03962
1.04651
1.05354
1.06138
1.06841
1.07736
1.0851
1.09449
1.10294
1.11196
1.1198
1.12894
1.13875
1.14986
1.1612
1.17372
1.18557
1.19817
1.21216
1.2278
1.2447
1.26092
1.27825
1.29743
1.31834
1.3403
1.36362
1.38388
1.40789
1.41207
1.42374
1.38755
1.32675
1.23006
1.1103
0.978853
0.876122
0.811583
0.792986
0.719436
0.66627
0.607372
0.576811
0.546861
0.526776
0.516401
0.504844
0.498421
0.493453
0.48922
0.49049
0.491405
0.489013
0.490218
0.490127
0.492343
0.493047
0.494501
0.494543
0.494889
0.49519
0.495884
0.493284
0.493585
0.494173
0.494775
0.494892
0.494579
0.49442
0.489691
0.48867
0.489883
0.489269
0.489923
0.490087
0.490439
0.490576
0.491808
0.492525
0.490765
0.487351
0.485399
0.480743
0.481328
0.476764
0.475308
0.474819
0.474956
0.473747
0.471755
0.469485
0.468066
0.462953
0.462662
0.457971
0.457956
0.45115
0.457636
0.478343
0.566688
0.697492
0.755877
0.772023
0.78215
0.792962
0.804222
0.814018
0.82412
0.832715
0.842351
0.849911
0.858378
0.864744
0.871832
0.877474
0.883777
0.889222
0.894765
0.899803
0.905076
0.91007
0.914618
0.918867
0.922904
0.926914
0.930507
0.933994
0.937182
0.940326
0.943185
0.945955
0.948482
0.950912
0.953146
0.955297
0.957309
0.959232
0.961057
0.962763
0.964412
0.965894
0.967372
0.968639
0.969965
0.971045
0.972256
0.973185
0.97432
0.975134
0.976218
0.976937
0.977991
0.978637
0.979673
0.980245
0.981253
0.981759
0.982751
0.983208
0.984194
0.984612
0.985598
0.985973
0.986958
0.987308
0.988319
0.988661
0.989698
0.990035
0.991105
0.991438
0.992582
0.992928
0.99422
0.99453
0.995758
0.996051
0.997228
0.997567
0.998158
0.997506
0.99964
0.997208
0.999564
0.995114
0.997497
0.996017
1.00227
1.00661
1.01233
1.0192
1.02473
1.03121
1.03544
1.04214
1.05016
1.05394
1.05969
1.05978
1.0647
1.05715
1.05947
1.04965
1.05483
1.04215
1.05656
1.04291
1.07212
1.04704
1.06873
1.03852
1.07027
1.0545
1.08055
1.1062
1.05789
1.11474
1.11476
1.05746
1.1064
1.0803
1.05422
1.07034
1.03863
1.06889
1.04693
1.07196
1.04274
1.05649
1.04197
1.05481
1.04957
1.05878
1.05714
1.06336
1.05938
1.05852
1.05312
1.04912
1.04148
1.03631
1.03242
1.02798
1.02358
1.02112
1.01913
1.0183
1.01754
1.0209
1.02301
1.02707
1.0306
1.03502
1.03864
1.04243
1.04603
1.04968
1.0523
1.05621
1.05813
1.06128
1.06371
1.06654
1.06867
1.07141
1.07324
1.07588
1.07777
1.07963
1.08168
1.08401
1.08473
1.08582
1.08726
1.08883
1.09014
1.09202
1.0934
1.09445
1.09556
1.09602
1.09643
1.09721
1.09693
1.09697
1.09667
1.09685
1.09667
1.09648
1.09562
1.09489
1.09407
1.09317
1.09198
1.09088
1.08928
1.08801
1.08652
1.08508
1.08331
1.0813
1.07904
1.07684
1.07424
1.07176
1.06902
1.06616
1.06265
1.05893
1.05515
1.05114
1.04696
1.0424
1.03779
1.033
1.02804
1.02269
1.01719
1.01164
1.00597
0.996756
0.987326
0.98357
0.980233
0.972839
0.964799
0.95652
0.948395
0.940203
0.932337
0.922805
0.914459
0.905982
0.898516
0.889893
0.883496
0.87699
0.872629
0.867399
0.866563
0.863741
0.867274
0.871751
0.871003
0.88413
0.884701
0.891397
0.900004
0.905023
0.915317
0.920995
0.927586
0.93643
0.94254
0.951561
0.957018
0.964024
0.970422
0.975847
0.983299
0.989933
0.995786
1.00123
1.0078
1.01323
1.02004
1.02668
1.03385
1.0402
1.04709
1.05463
1.0621
1.06973
1.07809
1.08612
1.09575
1.10389
1.11302
1.12111
1.13035
1.14108
1.15141
1.16311
1.17489
1.18833
1.20113
1.21554
1.22971
1.2473
1.26393
1.28186
1.29984
1.32061
1.34044
1.36271
1.37938
1.39532
1.40091
1.40621
1.38138
1.33524
1.25189
1.15672
1.04278
0.937279
0.862072
0.825603
0.755789
0.699043
0.635726
0.603485
0.567993
0.544809
0.529733
0.515877
0.505906
0.499711
0.496287
0.493839
0.493133
0.492875
0.493993
0.493433
0.4948
0.495328
0.49672
0.497279
0.496725
0.496702
0.497678
0.495947
0.49462
0.494778
0.496195
0.495448
0.496413
0.495696
0.490035
0.490116
0.491364
0.490258
0.490197
0.490293
0.490859
0.491341
0.492426
0.492974
0.491595
0.487424
0.486621
0.481893
0.480894
0.477033
0.475961
0.475237
0.475128
0.473789
0.472395
0.469619
0.468112
0.463078
0.463364
0.458427
0.458492
0.451357
0.457838
0.477856
0.564646
0.696592
0.761302
0.773123
0.782653
0.793131
0.804323
0.814045
0.824224
0.832729
0.8424
0.849923
0.858393
0.864777
0.871835
0.877503
0.883795
0.889241
0.894784
0.899797
0.905081
0.91009
0.914636
0.918874
0.922911
0.926931
0.930526
0.93401
0.937194
0.940338
0.943198
0.945969
0.948496
0.950928
0.953161
0.955312
0.957324
0.959247
0.961073
0.962778
0.964426
0.965907
0.967384
0.968651
0.969977
0.971056
0.972267
0.973195
0.974329
0.975141
0.976227
0.976946
0.978001
0.978641
0.979672
0.980237
0.981244
0.981745
0.982736
0.983185
0.984165
0.98457
0.985549
0.985911
0.98689
0.987222
0.988217
0.988527
0.98953
0.989815
0.990819
0.991071
0.992045
0.992282
0.993223
0.993386
0.994253
0.994371
0.995526
0.994953
0.996839
0.994941
0.99783
0.994812
0.997811
0.992103
0.997651
0.993278
0.999356
0.997775
1.00497
1.00962
1.01757
1.02387
1.03092
1.03841
1.04879
1.05348
1.05978
1.05984
1.06475
1.05715
1.05944
1.04967
1.05486
1.0422
1.05637
1.04324
1.07175
1.04778
1.06926
1.0402
1.07062
1.05478
1.08059
1.10641
1.05836
1.11507
1.1152
1.05833
1.10665
1.08055
1.0548
1.07058
1.04029
1.06945
1.04775
1.07156
1.04301
1.05629
1.04195
1.05481
1.0495
1.05872
1.05732
1.06324
1.05916
1.05833
1.05298
1.04887
1.04017
1.03553
1.02976
1.02717
1.02488
1.02502
1.02296
1.02524
1.0244
1.02806
1.02482
1.03374
1.03099
1.0394
1.03831
1.04518
1.04553
1.05102
1.05213
1.05646
1.05811
1.06133
1.06356
1.06653
1.06849
1.0713
1.07307
1.07563
1.07767
1.07934
1.08145
1.08364
1.08455
1.08541
1.08686
1.08874
1.09002
1.09162
1.09308
1.09412
1.09529
1.09571
1.09614
1.09687
1.09672
1.0967
1.09662
1.09668
1.09645
1.09618
1.09538
1.0947
1.09391
1.09303
1.0918
1.09072
1.08912
1.08786
1.08637
1.08493
1.08317
1.08116
1.07892
1.07672
1.07413
1.07166
1.06891
1.06604
1.06254
1.05884
1.05506
1.05106
1.04689
1.04235
1.03774
1.03296
1.028
1.02266
1.01717
1.01162
1.00592
0.996775
0.98752
0.983709
0.980272
0.97287
0.964907
0.956656
0.948571
0.940403
0.932518
0.923077
0.914789
0.906386
0.898947
0.890332
0.884057
0.877514
0.873282
0.867938
0.867362
0.864911
0.868407
0.872532
0.871583
0.884522
0.88501
0.891719
0.90043
0.90549
0.915791
0.921659
0.928467
0.937361
0.943459
0.95219
0.957613
0.964504
0.970605
0.976119
0.983403
0.990193
0.996599
1.00164
1.00801
1.01382
1.02046
1.02728
1.03423
1.04093
1.04794
1.05501
1.0629
1.06988
1.07901
1.08684
1.09615
1.1047
1.11375
1.12182
1.13145
1.14107
1.15233
1.16369
1.17646
1.18831
1.20128
1.2152
1.23051
1.24701
1.2636
1.28047
1.29948
1.31928
1.33975
1.35999
1.37822
1.39505
1.39723
1.40443
1.37313
1.32486
1.24837
1.14987
1.03775
0.941629
0.866717
0.832077
0.761436
0.70785
0.647033
0.612533
0.576134
0.55139
0.535331
0.521978
0.514286
0.505372
0.498413
0.498445
0.498127
0.496472
0.496184
0.496058
0.496916
0.497272
0.498618
0.498581
0.499204
0.498306
0.497812
0.497183
0.49671
0.49607
0.496938
0.496664
0.496588
0.497173
0.492354
0.490998
0.491088
0.490699
0.491047
0.490724
0.491318
0.491772
0.492779
0.493503
0.491883
0.488765
0.486647
0.482113
0.482026
0.477716
0.476783
0.475576
0.475613
0.473812
0.472569
0.470604
0.469235
0.463769
0.463283
0.458623
0.45886
0.452081
0.45747
0.476383
0.561894
0.693754
0.75717
0.772933
0.782688
0.79323
0.804405
0.814188
0.824208
0.832826
0.84239
0.849954
0.858426
0.864771
0.871889
0.877498
0.883809
0.889252
0.894779
0.899815
0.905084
0.910085
0.914647
0.91889
0.922923
0.926937
0.93053
0.934014
0.937199
0.94034
0.943201
0.945973
0.948503
0.950936
0.95317
0.955321
0.957333
0.959255
0.961079
0.962782
0.96443
0.96591
0.967388
0.968655
0.969982
0.971063
0.972274
0.973204
0.974337
0.97515
0.976233
0.976953
0.978004
0.978647
0.979673
0.98024
0.981241
0.981744
0.982729
0.983179
0.984155
0.984563
0.985537
0.985904
0.986878
0.987216
0.98821
0.988532
0.989547
0.989855
0.990903
0.9912
0.992287
0.992579
0.993778
0.99399
0.995133
0.995223
0.996252
0.996618
0.997463
0.996754
0.998356
0.996316
0.997753
0.996525
0.997801
0.996506
1.00037
1.00357
1.00843
1.01489
1.02109
1.02849
1.03388
1.04153
1.04996
1.0543
1.06001
1.05985
1.06496
1.05744
1.05958
1.04973
1.05484
1.0422
1.05658
1.04296
1.07217
1.04707
1.06868
1.03843
1.07033
1.05422
1.08065
1.10629
1.05793
1.11469
1.11487
1.05733
1.10639
1.0803
1.05403
1.07031
1.03866
1.06893
1.04689
1.07191
1.04268
1.05646
1.0419
1.05481
1.04952
1.0586
1.05714
1.06307
1.05905
1.05815
1.05302
1.04892
1.0414
1.0368
1.03287
1.02905
1.02557
1.02393
1.02271
1.0228
1.02333
1.02588
1.02777
1.03077
1.03366
1.03708
1.04
1.04363
1.04616
1.05019
1.0519
1.05602
1.05768
1.06086
1.0632
1.066
1.06798
1.07071
1.07259
1.07497
1.07718
1.0788
1.08084
1.08301
1.08408
1.08501
1.0863
1.08853
1.08977
1.09105
1.09251
1.09364
1.09483
1.09523
1.09559
1.09647
1.09621
1.09645
1.09649
1.09642
1.09609
1.09574
1.09506
1.09438
1.09367
1.09279
1.09157
1.09047
1.08892
1.08766
1.08618
1.08473
1.08298
1.08099
1.07875
1.07656
1.07398
1.0715
1.06875
1.06588
1.06242
1.05873
1.05497
1.05098
1.04681
1.04228
1.03769
1.03291
1.02796
1.02264
1.01717
1.01161
1.00589
0.996875
0.98778
0.983897
0.980222
0.97292
0.965076
0.956883
0.94883
0.9407
0.932851
0.92344
0.915277
0.906894
0.899438
0.890979
0.88469
0.878301
0.873916
0.868941
0.868138
0.865348
0.868735
0.873156
0.872599
0.885258
0.886154
0.892909
0.901149
0.906406
0.916357
0.922204
0.928664
0.937416
0.943442
0.952347
0.957931
0.96493
0.97151
0.97684
0.984106
0.990835
0.99649
1.00224
1.00884
1.0144
1.02136
1.02795
1.03523
1.04158
1.04839
1.05617
1.06367
1.07147
1.07984
1.08784
1.09737
1.10553
1.11487
1.12321
1.13265
1.14353
1.15399
1.16588
1.17728
1.19092
1.20361
1.21821
1.23231
1.24924
1.26557
1.28323
1.3007
1.32037
1.33848
1.35884
1.37279
1.38835
1.392
1.39805
1.36874
1.3311
1.26148
1.18476
1.08435
0.988776
0.911166
0.864273
0.79746
0.739788
0.675136
0.638548
0.597367
0.571541
0.550127
0.53255
0.521192
0.512753
0.504552
0.50307
0.500391
0.49972
0.499604
0.497411
0.498624
0.500048
0.500389
0.500572
0.500764
0.500669
0.50005
0.49801
0.498147
0.497859
0.498355
0.498007
0.498325
0.497649
0.492775
0.49235
0.492889
0.49162
0.491791
0.491809
0.492158
0.492132
0.49351
0.493984
0.493264
0.488952
0.487664
0.483289
0.48244
0.477787
0.476611
0.476303
0.476563
0.474836
0.473057
0.470427
0.469084
0.463975
0.464142
0.459153
0.459567
0.451967
0.457325
0.475114
0.558198
0.691465
0.760952
0.77467
0.783544
0.793422
0.804558
0.814201
0.824409
0.832797
0.842512
0.849985
0.85846
0.864862
0.871876
0.877573
0.883831
0.889273
0.89482
0.899813
0.905098
0.910112
0.914668
0.918911
0.922945
0.926959
0.930554
0.934037
0.937218
0.940358
0.943219
0.945992
0.948523
0.950959
0.953194
0.955346
0.957356
0.959279
0.961101
0.962803
0.964449
0.965929
0.967406
0.968672
0.97
0.971079
0.972292
0.973219
0.974355
0.975164
0.97625
0.976966
0.978021
0.978654
0.97968
0.980236
0.98124
0.981732
0.982719
0.983155
0.984131
0.984519
0.985492
0.985837
0.986809
0.987115
0.988097
0.98837
0.989353
0.989588
0.990574
0.990764
0.991725
0.991873
0.992831
0.99285
0.993878
0.993634
0.994842
0.994677
0.996414
0.994746
0.996711
0.994775
0.997016
0.99456
0.99766
0.994875
0.999199
0.998396
1.00393
1.00796
1.01567
1.02255
1.03008
1.03826
1.04853
1.05368
1.06016
1.05982
1.06519
1.05722
1.05965
1.04972
1.05488
1.04226
1.0564
1.0433
1.0718
1.04778
1.06922
1.0402
1.07052
1.05487
1.08035
1.10641
1.05835
1.11505
1.11527
1.05842
1.10673
1.08043
1.05487
1.07064
1.04034
1.06951
1.04772
1.07151
1.04295
1.05627
1.04188
1.0548
1.04945
1.05856
1.05725
1.0629
1.05895
1.05797
1.05293
1.04869
1.04065
1.03662
1.03123
1.02896
1.02709
1.02752
1.0262
1.02822
1.02772
1.03079
1.02992
1.03551
1.03443
1.0408
1.04012
1.04608
1.04617
1.05143
1.05204
1.05649
1.05768
1.06118
1.06305
1.06602
1.06782
1.07047
1.07247
1.07465
1.07706
1.07855
1.08061
1.08257
1.08398
1.08469
1.08593
1.08813
1.08956
1.09068
1.09214
1.09324
1.09453
1.09481
1.09528
1.09608
1.09592
1.09616
1.09628
1.09627
1.09577
1.09541
1.09478
1.09415
1.09346
1.09259
1.09134
1.09026
1.08871
1.08747
1.08599
1.08454
1.08279
1.08081
1.07859
1.07641
1.07384
1.07137
1.0686
1.06573
1.06227
1.0586
1.05484
1.05086
1.04671
1.04221
1.03762
1.03286
1.02791
1.02261
1.01715
1.01159
1.00582
0.996893
0.988025
0.984069
0.98029
0.972965
0.965214
0.957051
0.949052
0.940951
0.933071
0.923785
0.915684
0.907384
0.899988
0.891509
0.885397
0.878933
0.874743
0.869543
0.869054
0.86672
0.870144
0.874197
0.873297
0.885807
0.886573
0.893247
0.901698
0.90684
0.916888
0.922807
0.929616
0.938428
0.944397
0.953071
0.95861
0.965424
0.971605
0.977163
0.984198
0.991151
0.997504
1.00275
1.00907
1.015
1.0216
1.02853
1.03553
1.04227
1.04938
1.05663
1.06451
1.0715
1.08059
1.08853
1.09775
1.1064
1.11564
1.12388
1.13373
1.14325
1.15458
1.16587
1.17885
1.19069
1.2037
1.21759
1.23265
1.24845
1.26487
1.2815
1.29984
1.31801
1.33667
1.35444
1.37011
1.38395
1.38441
1.3896
1.35902
1.31919
1.25405
1.17308
1.07767
0.989352
0.911286
0.867342
0.800187
0.744958
0.684041
0.647219
0.605554
0.576731
0.555964
0.538689
0.52986
0.518521
0.510029
0.509117
0.505094
0.503769
0.502798
0.502076
0.501418
0.501945
0.502126
0.502662
0.502525
0.501913
0.501939
0.500278
0.498912
0.498758
0.499329
0.499031
0.49953
0.499276
0.494112
0.493432
0.492947
0.492137
0.492367
0.492411
0.492824
0.492758
0.493666
0.494459
0.493237
0.490566
0.488447
0.483322
0.482473
0.479706
0.477719
0.47657
0.476699
0.474638
0.473753
0.471677
0.470415
0.464516
0.464286
0.459532
0.460053
0.453257
0.456997
0.473265
0.553818
0.688363
0.758628
0.774446
0.783808
0.793932
0.804824
0.814524
0.824371
0.833036
0.8425
0.850075
0.858541
0.864849
0.872007
0.87756
0.883878
0.889312
0.894814
0.89986
0.905116
0.910114
0.914696
0.91894
0.922967
0.926977
0.930568
0.934049
0.937231
0.940367
0.943228
0.946001
0.948536
0.950973
0.953211
0.955362
0.957373
0.959292
0.961113
0.962813
0.964458
0.965937
0.967414
0.968682
0.970009
0.971092
0.972304
0.973236
0.974367
0.975181
0.976262
0.976982
0.978028
0.978667
0.979685
0.980248
0.981241
0.981739
0.982716
0.98316
0.984125
0.984524
0.985487
0.985845
0.986808
0.987134
0.988112
0.988417
0.989409
0.989692
0.990715
0.990977
0.992034
0.992272
0.993368
0.993575
0.994692
0.994656
0.995626
0.995614
0.996736
0.99645
0.997376
0.996424
0.997543
0.997158
0.998083
0.998153
1.00075
1.00291
1.007
1.01239
1.0184
1.02596
1.03224
1.04072
1.04954
1.05433
1.06045
1.05982
1.06531
1.05754
1.05969
1.04974
1.05486
1.04226
1.05661
1.04302
1.07223
1.04707
1.06864
1.03838
1.07039
1.05419
1.08083
1.10622
1.05807
1.11465
1.11491
1.05714
1.10643
1.08014
1.05385
1.07033
1.03874
1.06899
1.04687
1.07185
1.04262
1.05644
1.04182
1.05481
1.04949
1.05841
1.05704
1.06271
1.059
1.05779
1.05294
1.04871
1.04153
1.03739
1.03347
1.03026
1.0276
1.02658
1.02611
1.02659
1.0277
1.02972
1.03151
1.03398
1.03633
1.03924
1.04163
1.04476
1.04707
1.05043
1.05247
1.05561
1.05796
1.06036
1.06304
1.06539
1.06747
1.06985
1.07197
1.07403
1.07631
1.078
1.07986
1.08192
1.08355
1.08437
1.08544
1.08762
1.08919
1.09021
1.09158
1.09268
1.09395
1.09432
1.09474
1.09553
1.09548
1.09574
1.09618
1.09591
1.09532
1.09493
1.09435
1.09384
1.09316
1.09228
1.09106
1.08997
1.08846
1.08723
1.08575
1.0843
1.08255
1.0806
1.07838
1.0762
1.07364
1.07116
1.0684
1.06554
1.06211
1.05847
1.05473
1.05076
1.04661
1.04212
1.03755
1.03278
1.02785
1.02257
1.01714
1.01159
1.00581
0.996989
0.988275
0.984282
0.980236
0.973025
0.965404
0.957309
0.949345
0.941291
0.933468
0.924195
0.916242
0.907976
0.900521
0.892244
0.886073
0.879818
0.875363
0.870684
0.869864
0.867197
0.870361
0.874751
0.87431
0.886459
0.88775
0.894505
0.90238
0.90784
0.917384
0.923485
0.929849
0.938402
0.944419
0.95314
0.958886
0.965862
0.972552
0.977847
0.985016
0.99176
0.997275
1.00321
1.0099
1.01559
1.02256
1.02925
1.03661
1.04298
1.04975
1.05764
1.06519
1.07316
1.08161
1.08955
1.09912
1.10725
1.11667
1.12528
1.13489
1.14587
1.15645
1.16828
1.17962
1.1932
1.20585
1.22021
1.23413
1.25039
1.26632
1.28326
1.29971
1.31804
1.33437
1.35227
1.36398
1.37695
1.3766
1.38304
1.35268
1.32204
1.26523
1.19973
1.11298
1.02843
0.951458
0.898142
0.832421
0.775319
0.711379
0.672525
0.627762
0.596981
0.571127
0.552428
0.537424
0.525535
0.516584
0.513361
0.508739
0.506369
0.504746
0.504336
0.504233
0.503833
0.50427
0.504543
0.505034
0.50403
0.503127
0.502039
0.501265
0.500182
0.500568
0.499969
0.500422
0.500438
0.495881
0.49494
0.494558
0.493385
0.492565
0.492989
0.49364
0.493536
0.494213
0.49493
0.494849
0.490631
0.489405
0.484883
0.483474
0.478736
0.478383
0.477285
0.477366
0.47554
0.473843
0.471551
0.470387
0.465245
0.46499
0.45994
0.46068
0.452771
0.456917
0.471461
0.548358
0.6853
0.760881
0.777006
0.785186
0.794137
0.805092
0.814523
0.824711
0.83296
0.842729
0.850137
0.858602
0.865026
0.871967
0.877701
0.883905
0.889336
0.894891
0.899864
0.905148
0.910158
0.914722
0.918978
0.923007
0.927007
0.9306
0.934082
0.937258
0.940392
0.943253
0.94603
0.948564
0.951005
0.953243
0.955397
0.957405
0.959325
0.961142
0.962842
0.964484
0.965962
0.967438
0.968705
0.970035
0.971115
0.972331
0.973258
0.974396
0.975201
0.97629
0.977
0.978054
0.978679
0.979704
0.980248
0.981251
0.981729
0.982717
0.983134
0.984111
0.984477
0.98545
0.985771
0.986743
0.987019
0.987997
0.988231
0.989209
0.989392
0.990374
0.990498
0.991484
0.991533
0.992543
0.992513
0.993644
0.993298
0.994585
0.994001
0.99573
0.994798
0.996726
0.995189
0.997283
0.995978
0.998048
0.997594
1.00028
1.00011
1.00446
1.00767
1.01455
1.02147
1.02929
1.03805
1.04819
1.05364
1.06059
1.05973
1.06542
1.0576
1.05976
1.04973
1.0549
1.04231
1.05642
1.04335
1.07185
1.04779
1.06917
1.04015
1.07054
1.05472
1.08
1.10631
1.05846
1.11499
1.11523
1.05834
1.10675
1.08031
1.05495
1.07067
1.04039
1.06956
1.04767
1.07146
1.04288
1.05624
1.0418
1.0548
1.04942
1.05845
1.05712
1.06246
1.05905
1.05763
1.05287
1.04855
1.04137
1.03729
1.03285
1.03087
1.02922
1.03005
1.02925
1.03088
1.03078
1.03356
1.03349
1.03764
1.03732
1.04231
1.04205
1.04693
1.04731
1.05181
1.05262
1.05643
1.0579
1.06085
1.06293
1.06538
1.0674
1.06952
1.07195
1.0737
1.07607
1.07784
1.07956
1.08134
1.08342
1.08413
1.08519
1.08691
1.08884
1.08988
1.09121
1.09223
1.0935
1.09379
1.09439
1.09514
1.09513
1.09546
1.09579
1.09572
1.0949
1.09458
1.09404
1.09356
1.0929
1.09202
1.09077
1.08972
1.0882
1.08698
1.08551
1.08405
1.0823
1.08037
1.07818
1.076
1.07347
1.07099
1.06822
1.06535
1.06192
1.05831
1.05456
1.05061
1.04649
1.04202
1.03746
1.03271
1.02779
1.02252
1.01711
1.01156
1.00573
0.997
0.988562
0.984484
0.980333
0.973091
0.965574
0.957512
0.949614
0.941596
0.933725
0.924638
0.916712
0.908572
0.901087
0.893017
0.886716
0.88075
0.87602
0.871806
0.870449
0.868388
0.871815
0.875978
0.875077
0.887185
0.888229
0.894822
0.903028
0.908283
0.918022
0.923964
0.930787
0.939453
0.945381
0.953931
0.959601
0.96638
0.972657
0.978297
0.985072
0.992146
0.998464
1.00386
1.01025
1.0162
1.02285
1.02988
1.03683
1.04364
1.05076
1.05829
1.06615
1.07322
1.0822
1.09042
1.09949
1.10807
1.11746
1.12609
1.13589
1.14545
1.15682
1.16776
1.18063
1.19251
1.20569
1.21942
1.23386
1.24921
1.2652
1.28102
1.29826
1.31497
1.33179
1.34763
1.36039
1.37251
1.36923
1.37507
1.34454
1.31046
1.25481
1.18642
1.10421
1.02583
0.949884
0.898232
0.83323
0.778853
0.718814
0.679144
0.63557
0.603367
0.577681
0.558266
0.546601
0.531772
0.521586
0.518502
0.513467
0.511975
0.509716
0.508045
0.507692
0.506799
0.506828
0.505927
0.506767
0.506119
0.50511
0.50286
0.502791
0.501935
0.502171
0.50153
0.501368
0.5011
0.49759
0.495519
0.494582
0.494383
0.493629
0.493738
0.494281
0.494027
0.494649
0.495374
0.495085
0.492594
0.48992
0.484449
0.484363
0.480471
0.478414
0.478072
0.477717
0.475888
0.474764
0.472685
0.47167
0.465558
0.465756
0.460918
0.461691
0.45443
0.456625
0.46946
0.542062
0.681735
0.760937
0.77694
0.785928
0.795276
0.805548
0.815053
0.824667
0.833383
0.842716
0.850304
0.858743
0.865002
0.872198
0.877677
0.883997
0.889414
0.894882
0.899949
0.905187
0.910172
0.914774
0.919024
0.923045
0.927042
0.930627
0.934102
0.937281
0.94041
0.943272
0.946046
0.948586
0.951027
0.953268
0.955419
0.957429
0.959344
0.961162
0.962857
0.964499
0.965976
0.967451
0.968721
0.970049
0.971137
0.972349
0.973284
0.974414
0.975229
0.976306
0.977027
0.978067
0.978703
0.979713
0.980271
0.981256
0.981749
0.982717
0.983154
0.984111
0.9845
0.985453
0.985803
0.986758
0.987072
0.988038
0.988328
0.989306
0.989568
0.990569
0.990807
0.991837
0.992028
0.993072
0.993226
0.994302
0.994365
0.995365
0.995235
0.996308
0.996177
0.997269
0.996872
0.997905
0.997784
0.998874
0.999265
1.00142
1.00343
1.00684
1.01128
1.01686
1.02406
1.03083
1.03986
1.04894
1.05418
1.06077
1.05993
1.06551
1.0579
1.05984
1.04977
1.05487
1.04231
1.05664
1.04307
1.0723
1.04708
1.06857
1.0383
1.07032
1.05424
1.08083
1.10626
1.05826
1.11469
1.11498
1.0571
1.10649
1.08026
1.05385
1.07032
1.03876
1.06903
1.04686
1.07179
1.04255
1.05642
1.04174
1.05481
1.04943
1.05813
1.05717
1.06202
1.0591
1.05747
1.05283
1.04855
1.04188
1.03812
1.03444
1.03177
1.02995
1.02934
1.02941
1.02996
1.03115
1.03285
1.03477
1.03664
1.03893
1.04108
1.04351
1.0457
1.04833
1.05085
1.05318
1.05568
1.05809
1.06036
1.06266
1.06506
1.06695
1.06902
1.07144
1.07313
1.07538
1.07728
1.0788
1.08045
1.08311
1.08385
1.08481
1.08604
1.08819
1.08944
1.0906
1.09162
1.09289
1.09333
1.09391
1.09448
1.09469
1.0949
1.09551
1.09522
1.09448
1.09407
1.09357
1.09321
1.09251
1.09164
1.09042
1.08936
1.0879
1.08669
1.08523
1.08377
1.08203
1.08011
1.07791
1.07575
1.07321
1.07073
1.06798
1.06511
1.06172
1.05814
1.05442
1.05048
1.04635
1.0419
1.03737
1.03262
1.0277
1.02248
1.01709
1.01157
1.00573
0.997101
0.988803
0.984723
0.980288
0.973163
0.965791
0.957808
0.949936
0.942
0.934152
0.925155
0.91725
0.909215
0.901698
0.893755
0.887425
0.881574
0.876795
0.872861
0.871185
0.869113
0.872077
0.876371
0.876086
0.887715
0.889366
0.896114
0.903636
0.9092
0.918347
0.924698
0.931034
0.939384
0.945491
0.954016
0.959923
0.966898
0.973561
0.978932
0.986064
0.992748
0.998188
1.00421
1.01098
1.0168
1.02375
1.03063
1.03794
1.04448
1.05121
1.05899
1.06663
1.07478
1.08334
1.09123
1.10081