/*--------------------------------*- C++ -*----------------------------------*\
| =========                 |                                                 |
| \\      /  F ield         | OpenFOAM: The Open Source CFD Toolbox           |
|  \\    /   O peration     | Version:  v2006                                 |
|   \\  /    A nd           | Website:  www.openfoam.com                      |
|    \\/     M anipulation  |                                                 |
\*---------------------------------------------------------------------------*/
FoamFile
{
    version     2.0;
    format      ascii;
    class       volScalarField;
    location    "185";
    object      rho;
}
// * * * * * * * * * * * * * * * * * * * * * * * * * * * * * * * * * * * * * //

dimensions      [1 -3 0 0 0 0 0];


internalField   nonuniform List<scalar> 
93840
(
1.07704
1.03556
1.07368
1.05262
1.03959
1.061
1.0317
1.04849
1.03311
1.04233
1.03195
1.03923
1.02865
1.03886
1.0337
1.04284
1.04019
1.04698
1.04307
1.04304
1.03699
1.03002
1.01473
1.00397
0.997345
0.994127
0.991354
0.994472
0.989965
0.99073
0.980404
0.998316
0.973836
0.98739
0.987599
0.996744
0.995585
1.00268
1.00215
1.00811
1.00751
1.01244
1.01181
1.01561
1.01578
1.01924
1.01974
1.02251
1.02285
1.02562
1.02596
1.02775
1.0289
1.03138
1.03121
1.03182
1.03252
1.03337
1.03443
1.03629
1.03669
1.03748
1.03805
1.03826
1.03832
1.03875
1.03842
1.03801
1.03759
1.03764
1.03727
1.03714
1.0361
1.03543
1.03451
1.0336
1.03249
1.03144
1.02995
1.02875
1.02736
1.02603
1.02441
1.02259
1.02057
1.01864
1.01636
1.01422
1.01184
1.0094
1.00639
1.00325
1.00006
0.996709
0.993202
0.989418
0.985583
0.98163
0.977521
0.973119
0.968582
0.964068
0.959432
0.952027
0.944549
0.941571
0.938808
0.932738
0.926206
0.919661
0.91331
0.906972
0.900947
0.893699
0.887422
0.881193
0.875875
0.869633
0.865313
0.860958
0.858516
0.85519
0.855641
0.854494
0.858454
0.862748
0.863289
0.874525
0.875713
0.882138
0.889792
0.894787
0.903622
0.9089
0.915006
0.922666
0.928413
0.936034
0.940999
0.947132
0.952564
0.957607
0.964184
0.969961
0.975556
0.980125
0.985736
0.990744
0.996756
1.0026
1.00849
1.01418
1.02024
1.02631
1.0328
1.03893
1.04595
1.05223
1.06029
1.06781
1.07484
1.07997
1.08719
1.09617
1.10463
1.11274
1.12163
1.13066
1.14053
1.15153
1.16209
1.17321
1.18424
1.19589
1.20866
1.2236
1.23745
1.2545
1.26942
1.28531
1.29195
1.30243
1.27269
1.22059
1.11366
1.01684
0.892599
0.816592
0.787039
0.796656
0.728769
0.681883
0.638074
0.615119
0.592192
0.583201
0.577891
0.562977
0.554737
0.553887
0.55249
0.550713
0.547895
0.544999
0.545703
0.545985
0.546088
0.54509
0.544718
0.54356
0.542617
0.541641
0.539682
0.536949
0.535806
0.535182
0.533462
0.532358
0.530709
0.529234
0.523447
0.522199
0.521941
0.520843
0.519057
0.518545
0.517644
0.516999
0.516406
0.516621
0.513305
0.510033
0.507578
0.503534
0.50157
0.49864
0.495678
0.494977
0.493917
0.491758
0.490437
0.486686
0.485659
0.480451
0.480473
0.474555
0.475876
0.466911
0.475535
0.485759
0.556324
0.632288
0.685131
0.701811
0.713724
0.722796
0.733551
0.742178
0.751529
0.759402
0.768086
0.775291
0.782913
0.78926
0.795743
0.801476
0.807262
0.812705
0.817789
0.822688
0.827431
0.832226
0.836361
0.840427
0.844057
0.84785
0.851103
0.854399
0.857247
0.860179
0.86271
0.865275
0.867499
0.869733
0.871686
0.873647
0.875388
0.87713
0.878685
0.880229
0.881625
0.882955
0.884202
0.885334
0.886436
0.887401
0.888396
0.889207
0.890117
0.890806
0.891638
0.892214
0.892988
0.893472
0.894204
0.894592
0.895262
0.895545
0.896178
0.896381
0.896974
0.897134
0.897688
0.897774
0.898301
0.898336
0.89887
0.898885
0.899445
0.899425
0.899999
0.899946
0.900535
0.900506
0.901114
0.901062
0.901744
0.901619
0.902372
0.902278
0.902552
0.90269
0.906341
0.902686
0.907597
0.896749
0.904081
0.924913
0.941766
0.95714
0.97135
0.983326
0.990917
0.999091
1.00448
1.01527
1.02966
1.03734
1.04308
1.04301
1.04704
1.03998
1.04303
1.03369
1.03888
1.02865
1.03941
1.03178
1.04262
1.03242
1.04823
1.03068
1.06069
1.03925
1.05262
1.07352
1.03498
1.07666
1.07673
1.035
1.07351
1.05255
1.03923
1.06069
1.03067
1.04832
1.03243
1.04256
1.03168
1.03932
1.02859
1.03875
1.03369
1.04269
1.04003
1.04679
1.0429
1.04305
1.03806
1.03209
1.01946
1.0084
1.00275
0.99619
0.989915
0.985339
0.982706
0.981892
0.978764
0.979851
0.983302
0.988585
0.991146
0.996412
0.997813
1.00227
1.00365
1.00752
1.00842
1.01208
1.0125
1.0154
1.01631
1.01888
1.01982
1.02208
1.02284
1.02508
1.02576
1.02734
1.02849
1.03041
1.03049
1.03129
1.03207
1.03276
1.0336
1.03527
1.03585
1.03652
1.03703
1.03729
1.03738
1.03777
1.03743
1.03714
1.03667
1.03674
1.03641
1.03624
1.0353
1.03463
1.03377
1.0329
1.03186
1.03085
1.02946
1.02832
1.02701
1.02574
1.02422
1.02252
1.02063
1.0188
1.01666
1.01464
1.01239
1.0101
1.00729
1.00437
1.00138
0.998252
0.994984
0.991465
0.9879
0.984222
0.980414
0.976342
0.972153
0.967966
0.963712
0.956972
0.950066
0.947209
0.944644
0.939189
0.933295
0.927362
0.921608
0.915878
0.910458
0.903932
0.898319
0.892731
0.887982
0.882428
0.878646
0.874832
0.872726
0.869888
0.870474
0.869532
0.873335
0.877649
0.878265
0.889036
0.890501
0.896537
0.903948
0.908708
0.917229
0.922423
0.928279
0.935733
0.941177
0.948695
0.95351
0.959567
0.964947
0.969794
0.976143
0.981795
0.987083
0.991579
0.997106
1.00193
1.0076
1.01308
1.01882
1.02421
1.0299
1.03565
1.04167
1.04752
1.05387
1.05961
1.06714
1.07385
1.08009
1.0848
1.09151
1.0995
1.10683
1.11451
1.12214
1.12982
1.13828
1.14811
1.15848
1.17092
1.1813
1.19194
1.20451
1.21864
1.23162
1.24661
1.25938
1.27153
1.27315
1.27855
1.26266
1.22713
1.15304
1.08236
0.990323
0.912522
0.856244
0.841912
0.788446
0.743753
0.693738
0.671385
0.644839
0.626403
0.619333
0.61171
0.601541
0.594587
0.592299
0.592095
0.590154
0.587108
0.585716
0.585037
0.583794
0.581731
0.580379
0.579104
0.577485
0.575576
0.572347
0.570447
0.567877
0.5663
0.564311
0.562643
0.560751
0.559182
0.552213
0.551084
0.550187
0.548882
0.546039
0.545064
0.543737
0.543278
0.541861
0.541987
0.537874
0.534433
0.531706
0.527789
0.524571
0.521735
0.518784
0.517491
0.516236
0.513405
0.512529
0.508134
0.506985
0.501419
0.501744
0.49515
0.496722
0.487154
0.496291
0.505676
0.564397
0.646573
0.685505
0.69774
0.709035
0.718346
0.728787
0.737496
0.746739
0.754593
0.763217
0.770371
0.777986
0.784284
0.790778
0.796447
0.802248
0.807631
0.812712
0.817545
0.822307
0.827064
0.831202
0.835205
0.838839
0.842591
0.84584
0.849077
0.851913
0.854791
0.857307
0.859822
0.862024
0.864211
0.866139
0.868051
0.869767
0.871459
0.872994
0.874483
0.875855
0.877139
0.878362
0.879453
0.880542
0.88147
0.882455
0.883242
0.884154
0.884828
0.885683
0.88626
0.887074
0.887571
0.888355
0.888772
0.88952
0.889861
0.890588
0.890868
0.89158
0.891818
0.892519
0.89271
0.893407
0.893565
0.894279
0.894421
0.895154
0.895276
0.896022
0.896125
0.896859
0.896981
0.897646
0.897766
0.898394
0.898405
0.899124
0.898875
0.89924
0.898803
0.898675
0.8989
0.901785
0.892178
0.907216
0.90492
0.916989
0.923947
0.941246
0.955056
0.970318
0.982859
0.99444
1.00744
1.02591
1.0358
1.04292
1.04318
1.04705
1.04017
1.0431
1.03368
1.03893
1.02868
1.03933
1.032
1.04238
1.03304
1.04849
1.03163
1.06099
1.03961
1.05271
1.07376
1.03548
1.07698
1.07697
1.03557
1.07372
1.05264
1.03953
1.06095
1.03171
1.04859
1.03306
1.04229
1.03188
1.03913
1.02857
1.03866
1.0337
1.04259
1.04011
1.04664
1.0429
1.04302
1.03793
1.03316
1.02054
1.00963
1.00154
0.996793
0.993429
0.993334
0.990216
0.990826
0.990491
0.992599
0.984197
0.998279
0.991778
1.00171
0.99852
1.00574
1.00441
1.00992
1.00941
1.01362
1.01371
1.01662
1.01752
1.02001
1.021
1.02311
1.02399
1.02598
1.02687
1.02819
1.0295
1.03119
1.03139
1.03198
1.03289
1.03372
1.03456
1.03596
1.03666
1.03727
1.03783
1.03806
1.03819
1.03853
1.0383
1.03798
1.03768
1.03763
1.03736
1.03713
1.03628
1.03566
1.03487
1.03405
1.03304
1.0321
1.03078
1.0297
1.02847
1.02727
1.02584
1.02423
1.02245
1.02074
1.01872
1.01681
1.0147
1.01254
1.00989
1.00715
1.00433
1.00141
0.998347
0.995055
0.991727
0.988294
0.984745
0.980946
0.977048
0.973158
0.969204
0.962838
0.95634
0.953784
0.951518
0.946468
0.941023
0.935549
0.930235
0.92495
0.919928
0.913864
0.908644
0.90345
0.898978
0.893728
0.890186
0.886531
0.884501
0.881694
0.882307
0.881459
0.885035
0.88917
0.889471
0.900094
0.901331
0.907156
0.914513
0.91909
0.92745
0.932547
0.938272
0.94558
0.950803
0.957969
0.962516
0.968281
0.973266
0.977902
0.983952
0.98943
0.994634
0.998698
1.00391
1.0086
1.01388
1.01909
1.02447
1.02969
1.03494
1.04016
1.04608
1.05143
1.05798
1.06319
1.06978
1.07605
1.08255
1.08803
1.09454
1.10085
1.10831
1.11655
1.12552
1.1334
1.14201
1.15108
1.1614
1.17287
1.18427
1.19578
1.20838
1.22174
1.23672
1.25162
1.26621
1.28131
1.28424
1.29558
1.26847
1.23247
1.16613
1.08655
0.988966
0.917387
0.866077
0.849268
0.791557
0.7512
0.702481
0.677471
0.652035
0.634502
0.623658
0.615101
0.61054
0.60598
0.60018
0.602107
0.603174
0.600572
0.600015
0.600567
0.601461
0.601071
0.600547
0.600156
0.598656
0.598284
0.596171
0.592771
0.591013
0.590502
0.588446
0.587275
0.584364
0.583225
0.576652
0.574799
0.573454
0.572261
0.569966
0.568896
0.566602
0.566101
0.564346
0.564362
0.55989
0.556803
0.552404
0.548639
0.546192
0.542417
0.53871
0.537501
0.536564
0.533417
0.531744
0.527644
0.526065
0.520395
0.519768
0.513802
0.514051
0.506384
0.511269
0.522883
0.578556
0.656832
0.683705
0.696413
0.706975
0.716535
0.726858
0.735671
0.744802
0.752649
0.761205
0.768307
0.775915
0.782154
0.788676
0.794286
0.800101
0.805432
0.810526
0.815326
0.820096
0.824814
0.828979
0.832965
0.836612
0.840334
0.843594
0.846809
0.849653
0.852506
0.855026
0.857519
0.859726
0.861893
0.863824
0.865718
0.867434
0.869106
0.870642
0.87211
0.873482
0.874747
0.875971
0.877046
0.878139
0.879053
0.880046
0.880824
0.88175
0.882421
0.883298
0.88388
0.884725
0.885237
0.886063
0.886504
0.887304
0.887682
0.88847
0.8888
0.889584
0.889879
0.890664
0.89092
0.891707
0.89194
0.892751
0.892977
0.893817
0.894037
0.89491
0.89513
0.896073
0.896309
0.897392
0.897606
0.898679
0.898891
0.899911
0.900183
0.900762
0.900445
0.902399
0.900386
0.902909
0.899917
0.903177
0.903319
0.911614
0.919954
0.931854
0.946979
0.961683
0.977793
0.9902
1.00528
1.02339
1.03562
1.04285
1.04301
1.04764
1.03999
1.04336
1.0337
1.03902
1.0287
1.03954
1.03187
1.04267
1.0325
1.04814
1.03073
1.06062
1.03943
1.0527
1.07346
1.03509
1.07664
1.07663
1.03484
1.07347
1.05237
1.03905
1.06073
1.03076
1.04836
1.03238
1.04254
1.03164
1.0392
1.02853
1.03863
1.03369
1.04246
1.03999
1.04646
1.04293
1.04297
1.03834
1.03396
1.02411
1.0136
1.00712
1.00166
0.995471
0.992767
0.990141
0.989128
0.988121
0.990591
0.991597
0.994352
0.996746
0.999701
1.00208
1.00477
1.00693
1.00971
1.01105
1.01408
1.01492
1.01739
1.01862
1.02082
1.0219
1.02396
1.02489
1.02682
1.02784
1.02918
1.03035
1.03196
1.03227
1.03301
1.03383
1.03483
1.03558
1.03677
1.03758
1.0382
1.03882
1.03902
1.03918
1.03959
1.03928
1.03918
1.03886
1.03883
1.03859
1.0383
1.03759
1.03693
1.03625
1.03548
1.03453
1.03361
1.03239
1.03137
1.0302
1.02906
1.02771
1.0262
1.02452
1.02288
1.02097
1.01916
1.01716
1.01511
1.01261
1.01002
1.00737
1.0046
1.00172
0.998614
0.995479
0.992238
0.988897
0.985322
0.981657
0.977979
0.974248
0.968243
0.96209
0.959701
0.957569
0.952886
0.947808
0.942667
0.937645
0.932649
0.927885
0.922083
0.917105
0.91207
0.907689
0.902622
0.899084
0.895498
0.893284
0.890612
0.890902
0.889804
0.89318
0.897375
0.897645
0.908051
0.909292
0.91492
0.921912
0.926318
0.934388
0.939242
0.944663
0.951742
0.956676
0.96376
0.968186
0.973789
0.978768
0.9831
0.988839
0.993989
0.998464
1.00259
1.00757
1.01172
1.01667
1.02147
1.02675
1.0314
1.03629
1.04166
1.04702
1.05251
1.05839
1.06375
1.07064
1.07656
1.08271
1.08797
1.09444
1.10197
1.10927
1.11721
1.12517
1.13403
1.14263
1.15232
1.16211
1.17368
1.18475
1.19646
1.20857
1.22186
1.23524
1.24851
1.26138
1.27106
1.27439
1.28052
1.26641
1.23648
1.17722
1.11545
1.03261
0.959561
0.904651
0.87617
0.823096
0.780904
0.727982
0.698696
0.672088
0.656607
0.639074
0.625161
0.617824
0.615122
0.610211
0.607737
0.606436
0.607649
0.607801
0.607793
0.607992
0.608982
0.609351
0.610661
0.608847
0.60983
0.60893
0.607252
0.604652
0.605191
0.604468
0.603662
0.601883
0.601084
0.593592
0.593172
0.59165
0.590477
0.587412
0.586477
0.583896
0.583987
0.58185
0.582001
0.577386
0.573654
0.569742
0.566028
0.56194
0.558559
0.554956
0.553523
0.552092
0.548987
0.547242
0.542882
0.540398
0.535136
0.534353
0.528824
0.527903
0.520785
0.524843
0.536568
0.591447
0.668903
0.695658
0.698439
0.706919
0.716132
0.726237
0.734995
0.744113
0.75185
0.760392
0.767409
0.774994
0.781204
0.787702
0.793299
0.799111
0.804405
0.809499
0.814249
0.819033
0.823737
0.827907
0.831867
0.835526
0.83924
0.84251
0.845709
0.848555
0.851395
0.853919
0.8564
0.858609
0.860767
0.862699
0.864584
0.866302
0.867966
0.869505
0.870964
0.872339
0.873595
0.874821
0.875889
0.876987
0.877893
0.878893
0.879666
0.8806
0.881268
0.882159
0.882744
0.883608
0.884123
0.884967
0.885415
0.886243
0.886636
0.887456
0.887805
0.888622
0.888935
0.889755
0.890035
0.890862
0.891118
0.891963
0.892202
0.893059
0.893277
0.894139
0.894332
0.895175
0.895357
0.896172
0.896303
0.897088
0.897175
0.898223
0.897818
0.899552
0.898058
0.900801
0.898329
0.901426
0.896993
0.902875
0.900053
0.90716
0.908456
0.919416
0.930221
0.945923
0.961863
0.978382
0.995717
1.01725
1.03343
1.04261
1.04295
1.04772
1.03998
1.04329
1.0337
1.03901
1.0287
1.03943
1.03206
1.04242
1.03304
1.04836
1.03179
1.06091
1.03969
1.05282
1.07374
1.03548
1.077
1.07707
1.03558
1.07374
1.05251
1.03949
1.06103
1.03177
1.04864
1.03309
1.04223
1.0318
1.03901
1.02851
1.03852
1.03372
1.04227
1.04015
1.04632
1.04278
1.04288
1.0385
1.0345
1.02437
1.01516
1.00623
1.00298
0.998952
0.998287
0.995503
0.996783
0.995324
0.997713
0.994674
1.00149
0.998282
1.0052
1.00306
1.00887
1.00795
1.01257
1.01244
1.01602
1.01647
1.01911
1.02012
1.02244
1.02339
1.02548
1.02639
1.02823
1.02938
1.03054
1.0318
1.03327
1.03373
1.03427
1.03515
1.03634
1.03711
1.03808
1.03897
1.03956
1.04026
1.04042
1.04063
1.04099
1.04081
1.04066
1.04053
1.04043
1.0402
1.03988
1.03925
1.03866
1.03804
1.03732
1.03639
1.03555
1.03438
1.03342
1.03232
1.03125
1.02998
1.02854
1.02696
1.02542
1.02361
1.02191
1.02
1.01807
1.0157
1.01326
1.01075
1.00814
1.00542
1.0025
0.999538
0.996483
0.993325
0.98994
0.986475
0.982992
0.97944
0.973685
0.967855
0.965656
0.963696
0.959211
0.954388
0.949468
0.944642
0.939812
0.935144
0.929511
0.924596
0.919627
0.915215
0.910098
0.90653
0.902758
0.900466
0.897513
0.89782
0.896804
0.899941
0.90375
0.903602
0.913856
0.914725
0.920298
0.927197
0.931472
0.939365
0.944203
0.94957
0.956483
0.961156
0.967769
0.971885
0.977126
0.981618
0.985789
0.991089
0.996077
1.00076
1.00444
1.00908
1.01332
1.01815
1.02317
1.02818
1.03292
1.03793
1.0431
1.04866
1.05354
1.06025
1.06583
1.07213
1.07797
1.08459
1.09008
1.09664
1.10334
1.11103
1.11856
1.12753
1.13573
1.14463
1.15367
1.16412
1.175
1.18631
1.19727
1.21049
1.22238
1.23688
1.24813
1.26099
1.2722
1.27308
1.28123
1.26016
1.22856
1.17576
1.11141
1.02997
0.960692
0.904873
0.882202
0.82589
0.779859
0.733749
0.712625
0.674234
0.650378
0.641391
0.633355
0.621446
0.614775
0.608011
0.610095
0.608818
0.608062
0.606431
0.607359
0.607425
0.608629
0.609144
0.609964
0.609679
0.609708
0.608543
0.608776
0.607481
0.607645
0.60734
0.60872
0.606751
0.608139
0.60244
0.602315
0.600315
0.600975
0.599125
0.598939
0.596572
0.597397
0.595411
0.596289
0.591401
0.588753
0.583581
0.580118
0.576677
0.573117
0.569314
0.567667
0.565975
0.562903
0.560455
0.557596
0.554373
0.549156
0.546723
0.542133
0.540377
0.534221
0.53684
0.548122
0.602915
0.681404
0.702083
0.701624
0.707765
0.716546
0.726277
0.735015
0.743879
0.75166
0.760037
0.767024
0.774565
0.780685
0.787227
0.792736
0.798566
0.803821
0.808893
0.813634
0.818404
0.823074
0.827254
0.831204
0.834865
0.838562
0.841833
0.845021
0.847871
0.850698
0.853224
0.855695
0.857906
0.860055
0.86199
0.863867
0.865586
0.867242
0.868782
0.870234
0.871612
0.872863
0.874092
0.875157
0.876258
0.877162
0.878167
0.878939
0.879878
0.880547
0.881443
0.88203
0.882901
0.883422
0.884277
0.884735
0.885574
0.885981
0.886815
0.887182
0.888018
0.888353
0.889195
0.889501
0.890352
0.890638
0.891513
0.891791
0.892691
0.89296
0.893895
0.894159
0.895139
0.895403
0.896482
0.896693
0.897757
0.897885
0.898861
0.899172
0.900043
0.89969
0.901222
0.899801
0.901389
0.900783
0.902641
0.902555
0.907136
0.911792
0.919177
0.929818
0.942359
0.958438
0.973886
0.992377
1.01285
1.03124
1.04232
1.04285
1.04789
1.04018
1.04349
1.03369
1.03914
1.02875
1.03964
1.0319
1.04271
1.03251
1.04808
1.03057
1.06065
1.03927
1.05282
1.07356
1.03511
1.07661
1.07671
1.03479
1.07344
1.0523
1.03886
1.06078
1.03095
1.04841
1.03241
1.04246
1.03156
1.0391
1.02847
1.03845
1.03372
1.04215
1.03999
1.04615
1.04268
1.04277
1.03871
1.03517
1.02739
1.01898
1.01124
1.0063
1.00117
0.998593
0.996877
0.996093
0.996246
0.997592
0.998762
1.00051
1.0025
1.00461
1.00658
1.009
1.01055
1.0134
1.01429
1.01725
1.0181
1.0204
1.02172
1.02375
1.02485
1.02679
1.02784
1.02951
1.03082
1.03193
1.03316
1.03461
1.0352
1.03579
1.03657
1.03799
1.03873
1.0395
1.04041
1.04106
1.04179
1.04194
1.04214
1.04262
1.04239
1.04244
1.04242
1.04225
1.04198
1.04164
1.04114
1.04058
1.04006
1.03938
1.03853
1.03771
1.03664
1.03574
1.03472
1.03371
1.03252
1.03118
1.02969
1.02824
1.02653
1.02492
1.02313
1.02132
1.0191
1.0168
1.01444
1.01199
1.00942
1.00666
1.00387
1.00097
0.997976
0.99477
0.991479
0.988156
0.984753
0.979257
0.97368
0.971595
0.969623
0.965371
0.960745
0.955971
0.95122
0.946455
0.941814
0.936167
0.931257
0.926182
0.921598
0.916459
0.912628
0.90877
0.906094
0.903254
0.903058
0.901614
0.90445
0.908316
0.908166
0.918001
0.918851
0.924159
0.930393
0.934492
0.941754
0.946255
0.950963
0.957522
0.961857
0.968414
0.972388
0.977469
0.982115
0.986127
0.991309
0.996241
1.00027
1.00446
1.00915
1.01323
1.01827
1.02313
1.0283
1.03293
1.03776
1.04336
1.04867
1.05433
1.06005
1.06545
1.07231
1.0783
1.08467
1.09028
1.09684
1.10421
1.11162
1.11978
1.12751
1.13638
1.14548
1.1548
1.16464
1.17562
1.18727
1.19772
1.21078
1.22217
1.23593
1.2474
1.25757
1.26716
1.26985
1.27704
1.25814
1.23358
1.18432
1.13363
1.0636
0.997743
0.940452
0.905505
0.854015
0.815481
0.760004
0.724791
0.696382
0.680299
0.655688
0.637682
0.633224
0.626213
0.616787
0.614682
0.613345
0.614226
0.61324
0.610073
0.612202
0.613656
0.614417
0.613398
0.614087
0.61358
0.613121
0.61183
0.611656
0.6109
0.611303
0.611789
0.611218
0.611182
0.606179
0.606264
0.605919
0.605549
0.604397
0.605594
0.6037
0.60506
0.604015
0.605794
0.602236
0.599153
0.594853
0.592099
0.58814
0.584641
0.580378
0.580109
0.578007
0.575929
0.57221
0.56951
0.565342
0.561118
0.558656
0.554522
0.552057
0.545663
0.547733
0.559065
0.612915
0.695127
0.718387
0.709304
0.710972
0.718068
0.727173
0.735539
0.744369
0.751826
0.760231
0.767039
0.774507
0.780605
0.787021
0.792569
0.79834
0.803556
0.808629
0.813298
0.818074
0.822727
0.82689
0.830821
0.834483
0.838169
0.841441
0.844618
0.847465
0.85028
0.852805
0.855267
0.857476
0.859619
0.861551
0.863422
0.865139
0.86679
0.868329
0.869776
0.871154
0.8724
0.873631
0.874691
0.875796
0.876696
0.877705
0.878472
0.879417
0.880081
0.880985
0.881569
0.88245
0.882964
0.883828
0.88428
0.885132
0.885536
0.886385
0.886748
0.887597
0.887927
0.888784
0.889084
0.889951
0.890226
0.891109
0.891361
0.892253
0.892477
0.893376
0.893566
0.894452
0.894608
0.895498
0.895558
0.896528
0.896378
0.897547
0.897405
0.899069
0.897823
0.899864
0.898356
0.900704
0.898885
0.902292
0.900576
0.905356
0.905911
0.912989
0.920027
0.932402
0.946617
0.963668
0.983002
1.00555
1.02643
1.0416
1.04269
1.04805
1.04002
1.04368
1.03371
1.0392
1.02874
1.03955
1.03207
1.04245
1.03301
1.04833
1.03199
1.06084
1.03979
1.0527
1.07375
1.03551
1.077
1.07712
1.03569
1.07379
1.05241
1.0395
1.06106
1.03179
1.04878
1.03309
1.04219
1.03173
1.03891
1.02847
1.03838
1.03373
1.04206
1.04009
1.04599
1.04259
1.04265
1.03877
1.03536
1.02748
1.0211
1.01188
1.00843
1.00522
1.00406
1.00226
1.00284
1.00191
1.00366
1.00249
1.00653
1.00492
1.0099
1.00844
1.01326
1.01239
1.01665
1.01628
1.01986
1.02004
1.02282
1.02363
1.02589
1.02678
1.02871
1.02982
1.03135
1.03282
1.0338
1.03508
1.03636
1.03721
1.03761
1.03839
1.03979
1.04069
1.04134
1.04228
1.0429
1.04374
1.0438
1.0441
1.04452
1.0444
1.04446
1.04453
1.04443
1.04409
1.04377
1.04334
1.04286
1.0424
1.04177
1.04095
1.04021
1.03919
1.03837
1.03742
1.03647
1.03536
1.0341
1.03272
1.03136
1.02977
1.02826
1.02657
1.02485
1.02275
1.0206
1.01837
1.01606
1.01364
1.01104
1.00837
1.00562
1.00275
0.999678
0.996522
0.993318
0.990004
0.984666
0.979338
0.977302
0.975369
0.971129
0.966581
0.961814
0.957042
0.952212
0.947423
0.941741
0.936669
0.931498
0.926717
0.921315
0.917343
0.913103
0.910329
0.906963
0.906777
0.905337
0.907984
0.911201
0.91051
0.919983
0.920479
0.925568
0.931764
0.935732
0.943033
0.947448
0.952205
0.958808
0.963082
0.969471
0.97345
0.97848
0.982843
0.98695
0.991967
0.997051
1.00165
1.00553
1.01008
1.01432
1.01921
1.02413
1.02926
1.03413
1.03925
1.04425
1.05007
1.05476
1.0615
1.06698
1.07359
1.07906
1.08604
1.09135
1.09857
1.10465
1.11316
1.11992
1.12979
1.13698
1.14704
1.15502
1.16654
1.17558
1.18798
1.19722
1.21142
1.22109
1.23442
1.24514
1.25558
1.26477
1.26456
1.27139
1.25084
1.22372
1.17892
1.12482
1.05733
0.995239
0.937628
0.907062
0.857903
0.808822
0.759886
0.737841
0.707285
0.671443
0.654579
0.646189
0.639688
0.624336
0.618554
0.61892
0.615763
0.613203
0.613753
0.611675
0.611991
0.611617
0.612879
0.612467
0.612966
0.612131
0.612061
0.611463
0.609839
0.609722
0.609991
0.610467
0.61043
0.6102
0.605615
0.605531
0.604731
0.604272
0.603935
0.604534
0.604519
0.604897
0.605198
0.60627
0.604246
0.603528
0.599203
0.596698
0.593274
0.592724
0.588038
0.58839
0.586005
0.584969
0.581414
0.580587
0.575944
0.571862
0.568151
0.565205
0.561992
0.557479
0.556861
0.568531
0.621772
0.708045
0.732364
0.718203
0.715804
0.721231
0.729107
0.737072
0.745247
0.752751
0.760753
0.767509
0.77485
0.780755
0.787241
0.792601
0.7984
0.803562
0.808564
0.813243
0.817974
0.822579
0.826742
0.830651
0.834302
0.83797
0.841234
0.844397
0.847241
0.850043
0.852564
0.855015
0.857222
0.859355
0.861285
0.863147
0.864863
0.866504
0.868042
0.869481
0.870859
0.872101
0.873332
0.874391
0.875497
0.876397
0.877407
0.878177
0.879119
0.879786
0.880688
0.881275
0.882152
0.882672
0.883533
0.883993
0.884841
0.885254
0.8861
0.886476
0.887325
0.887672
0.888529
0.888851
0.889721
0.890024
0.890916
0.891209
0.892124
0.892405
0.893354
0.893624
0.894613
0.894866
0.895898
0.896128
0.897192
0.897261
0.898237
0.898293
0.899407
0.899303
0.900384
0.8998
0.901133
0.901078
0.902455
0.90312
0.906188
0.90916
0.914358
0.921724
0.931304
0.944765
0.95985
0.979361
1.00055
1.02206
1.04049
1.04248
1.04814
1.04026
1.04374
1.0337
1.03927
1.02879
1.03972
1.03197
1.04277
1.03252
1.04801
1.03047
1.06068
1.03939
1.05297
1.0735
1.03524
1.07661
1.07675
1.03473
1.07345
1.05214
1.03867
1.06074
1.03086
1.0485
1.03234
1.04244
1.0315
1.03898
1.02843
1.03834
1.03376
1.04193
1.03994
1.0458
1.04259
1.04251
1.03886
1.03575
1.0292
1.02405
1.01651
1.01121
1.00767
1.00496
1.00418
1.0034
1.00404
1.00478
1.00592
1.00719
1.00877
1.01047
1.01207
1.01405
1.01553
1.01777
1.01902
1.02116
1.02259
1.02426
1.02589
1.02755
1.02876
1.03043
1.03168
1.0331
1.03449
1.03563
1.03677
1.03814
1.03914
1.03964
1.0403
1.0417
1.0427
1.04329
1.04419
1.04482
1.04567
1.04581
1.04609
1.04654
1.04651
1.04662
1.04694
1.04669
1.04632
1.04601
1.04567
1.04531
1.04491
1.04432
1.04357
1.04288
1.04196
1.0412
1.04033
1.03944
1.03842
1.03725
1.03594
1.03467
1.03318
1.03176
1.03018
1.02858
1.02662
1.0246
1.0225
1.02031
1.018
1.01551
1.01296
1.0103
1.00754
1.00457
1.0015
0.998369
0.995097
0.989862
0.984629
0.982591
0.980467
0.976274
0.97171
0.96687
0.961956
0.956991
0.951975
0.945999
0.940575
0.935007
0.929853
0.923876
0.919706
0.914862
0.911938
0.907693
0.908011
0.904949
0.909024
0.910615
0.911922
0.919353
0.921978
0.92534
0.932686
0.935046
0.943715
0.946558
0.952796
0.957403
0.963418
0.96811
0.973965
0.977372
0.983904
0.986016
0.992863
0.996143
1.00177
1.00446
1.01105
1.0133
1.02008
1.02329
1.03022
1.03309
1.03971
1.04368
1.05073
1.05467
1.06226
1.06611
1.0746
1.07867
1.08696
1.09102
1.09949
1.10513
1.11439
1.12083
1.13035
1.13733
1.14844
1.15634
1.16729
1.17665
1.1889
1.19837
1.2107
1.22223
1.2332
1.24406
1.25203
1.25979
1.25901
1.26708
1.24633
1.22577
1.18816
1.14378
1.08446
1.02575
0.969326
0.930913
0.881256
0.838569
0.79143
0.758679
0.717582
0.696247
0.676853
0.658493
0.643275
0.635804
0.628119
0.624887
0.620354
0.619252
0.616523
0.617056
0.616444
0.616913
0.616419
0.617308
0.61688
0.616682
0.615356
0.615037
0.613881
0.612863
0.613236
0.612471
0.6127
0.612969
0.608658
0.608387
0.607386
0.606899
0.605664
0.606544
0.606769
0.606842
0.606907
0.607937
0.606702
0.60477
0.602126
0.599395
0.596877
0.593746
0.592523
0.592021
0.591171
0.590755
0.586396
0.586912
0.582461
0.579827
0.576273
0.573648
0.570608
0.565312
0.565055
0.576786
0.628923
0.719728
0.752428
0.732762
0.724167
0.725932
0.732302
0.739235
0.747191
0.753994
0.762006
0.768401
0.775563
0.781423
0.787614
0.793053
0.7987
0.803799
0.808803
0.813364
0.818091
0.822665
0.826779
0.830665
0.834304
0.837948
0.841203
0.844351
0.847183
0.849971
0.852483
0.854925
0.857124
0.859249
0.861172
0.863026
0.864734
0.866369
0.8679
0.869334
0.870707
0.871944
0.873174
0.874229
0.875336
0.876231
0.877245
0.878008
0.878957
0.879615
0.880524
0.881102
0.881988
0.882495
0.883364
0.883808
0.884668
0.885064
0.885924
0.886279
0.887142
0.887464
0.888336
0.888629
0.889513
0.889778
0.890678
0.890915
0.891826
0.892025
0.892948
0.893103
0.894037
0.894132
0.895099
0.895126
0.89621
0.896
0.897265
0.896832
0.898497
0.897796
0.899745
0.898613
0.900786
0.899932
0.902202
0.902259
0.905312
0.905967
0.911042
0.915787
0.92518
0.936766
0.952165
0.971378
0.993446
1.01592
1.03823
1.0421
1.04822
1.04026
1.04384
1.03368
1.03937
1.0288
1.03969
1.03211
1.04251
1.03302
1.04823
1.0318
1.06098
1.03978
1.05257
1.07372
1.03559
1.07697
1.07711
1.03569
1.0738
1.0523
1.03951
1.06103
1.03185
1.04887
1.033
1.04215
1.03166
1.0388
1.02842
1.03818
1.03371
1.04182
1.03998
1.04559
1.0426
1.04236
1.03882
1.03582
1.02974
1.0251
1.01851
1.01406
1.01178
1.01056
1.00928
1.00953
1.00888
1.01043
1.0098
1.01269
1.01178
1.01553
1.01459
1.0184
1.01792
1.02148
1.02137
1.02439
1.02486
1.02717
1.02819
1.03005
1.03113
1.03267
1.03412
1.03532
1.03681
1.03796
1.03904
1.04019
1.04154
1.04192
1.04262
1.0437
1.04498
1.04558
1.04648
1.04706
1.04794
1.04803
1.04847
1.0489
1.04893
1.0491
1.04938
1.04931
1.04882
1.04859
1.04832
1.04802
1.04768
1.04714
1.04642
1.04581
1.04495
1.04426
1.04345
1.04263
1.04168
1.04059
1.03939
1.0382
1.03681
1.03548
1.03399
1.03246
1.0306
1.02868
1.02668
1.02459
1.02238
1.01998
1.01748
1.01489
1.01216
1.00921
1.00617
1.00303
0.999694
0.994436
0.989303
0.987115
0.984852
0.980443
0.975691
0.970517
0.965238
0.959826
0.954399
0.947945
0.942438
0.936558
0.931145
0.925105
0.920633
0.915913
0.912686
0.908893
0.9086
0.906166
0.910263
0.911811
0.912614
0.920101
0.922382
0.925851
0.933365
0.935652
0.944351
0.947193
0.953655
0.958503
0.964347
0.968986
0.974595
0.978029
0.984153
0.986717
0.99311
0.996687
1.00274
1.00515
1.01146
1.01417
1.0204
1.02396
1.03053
1.03396
1.04047
1.04431
1.05142
1.05508
1.06274
1.06706
1.07473
1.07943
1.08738
1.09205
1.10008
1.10555
1.11437
1.1206
1.13074
1.13774
1.1474
1.1561
1.16673
1.17664
1.18773
1.19744
1.20957
1.22039
1.23169
1.24086
1.24931
1.25751
1.25395
1.26153
1.24115
1.21751
1.17989
1.13437
1.07609
1.021
0.966432
0.928356
0.879254
0.839441
0.790293
0.75876
0.726184
0.700492
0.675253
0.658555
0.651457
0.63925
0.6285
0.626005
0.622254
0.621105
0.618356
0.617649
0.616587
0.616846
0.616178
0.615898
0.61594
0.616026
0.614951
0.613474
0.613084
0.612634
0.612445
0.612463
0.611799
0.612427
0.609032
0.607423
0.606103
0.606514
0.60541
0.606043
0.606175
0.606325
0.606381
0.607569
0.606674
0.605433
0.602388
0.59789
0.597751
0.594663
0.59212
0.592205
0.591359
0.590429
0.588541
0.58743
0.585605
0.580715
0.58033
0.576272
0.576513
0.569632
0.570574
0.582743
0.632532
0.729312
0.770097
0.747735
0.734997
0.733646
0.737249
0.743057
0.749689
0.756421
0.763653
0.769913
0.776802
0.782303
0.788575
0.793662
0.799337
0.804342
0.8092
0.813782
0.818421
0.822919
0.827019
0.830857
0.834464
0.838082
0.841312
0.844435
0.847257
0.850025
0.852526
0.85495
0.857143
0.859253
0.861169
0.863009
0.86471
0.866332
0.867858
0.86928
0.870649
0.87188
0.873107
0.87416
0.875265
0.876162
0.877171
0.877939
0.87888
0.879545
0.880445
0.881029
0.881902
0.882419
0.883275
0.883731
0.884576
0.884986
0.885829
0.886202
0.887049
0.887392
0.88825
0.888571
0.889443
0.889746
0.89064
0.890931
0.891848
0.892124
0.89307
0.893334
0.894315
0.894547
0.895552
0.895752
0.89679
0.896931
0.897938
0.897942
0.899021
0.899026
0.900186
0.900052
0.901239
0.901425
0.902746
0.903496
0.905952
0.908443
0.912427
0.917862
0.925351
0.936138
0.949461
0.968135
0.988638
1.01076
1.03508
1.04174
1.04826
1.04048
1.04394
1.03371
1.03935
1.02883
1.03981
1.03202
1.0428
1.03249
1.04797
1.03057
1.06061
1.03952
1.05297
1.07354
1.03542
1.07663
1.0768
1.03472
1.07345
1.05221
1.03864
1.06069
1.03059
1.04864
1.03239
1.04237
1.03142
1.03887
1.02838
1.03818
1.03369
1.04155
1.03995
1.04527
1.0426
1.04221
1.03879
1.03593
1.03067
1.0271
1.02224
1.01684
1.01429
1.0122
1.01155
1.01112
1.0115
1.0122
1.01323
1.01418
1.0156
1.0168
1.01837
1.01967
1.02139
1.02298
1.02448
1.02613
1.02765
1.02918
1.03061
1.03224
1.03338
1.0348
1.03631
1.03745
1.03888
1.04013
1.04108
1.04217
1.04392
1.04435
1.04496
1.04574
1.04719
1.04795
1.04873
1.04934
1.05023
1.05045
1.0509
1.05123
1.05145
1.05156
1.05208
1.05186
1.05148
1.05122
1.05103
1.05084
1.05054
1.05004
1.04941
1.04883
1.04807
1.04743
1.0467
1.04593
1.04505
1.04404
1.0429
1.04178
1.04047
1.0392
1.0378
1.03635
1.03459
1.03276
1.03083
1.02879
1.0266
1.02422
1.02174
1.01912
1.01637
1.0134
1.0103
1.0071
1.00364
0.99819
0.992879
0.990408
0.987629
0.982599
0.977708
0.972226
0.966647
0.960977
0.955314
0.94879
0.943076
0.937203
0.93164
0.925847
0.9212
0.916681
0.913171
0.909823
0.909073
0.906686
0.910337
0.912199
0.913215
0.920511
0.922936
0.926783
0.933664
0.936321
0.944445