/*--------------------------------*- C++ -*----------------------------------*\
| =========                 |                                                 |
| \\      /  F ield         | OpenFOAM: The Open Source CFD Toolbox           |
|  \\    /   O peration     | Version:  v2006                                 |
|   \\  /    A nd           | Website:  www.openfoam.com                      |
|    \\/     M anipulation  |                                                 |
\*---------------------------------------------------------------------------*/
FoamFile
{
    version     2.0;
    format      ascii;
    class       volScalarField;
    location    "185";
    object      T;
}
// * * * * * * * * * * * * * * * * * * * * * * * * * * * * * * * * * * * * * //

dimensions      [0 0 0 1 0 0 0];


internalField   nonuniform List<scalar> 
93840
(
1.03537
1.02204
1.03049
1.02652
1.01457
1.00896
1.0083
1.01989
1.01421
1.02814
1.01084
1.01646
1.01307
1.01538
1.01539
1.01561
1.01656
1.01618
1.01587
1.01537
1.01552
1.01849
1.02432
1.02942
1.03023
1.03027
1.02842
1.0247
1.02293
1.02498
1.02701
1.03703
1.03661
1.03231
1.04052
1.0372
1.04258
1.04023
1.04436
1.04283
1.04588
1.04483
1.04708
1.04626
1.04825
1.04783
1.04951
1.04921
1.0505
1.05052
1.05157
1.05143
1.05261
1.05295
1.05352
1.05327
1.05401
1.05398
1.05478
1.05533
1.05584
1.05603
1.05658
1.05667
1.05698
1.05722
1.05739
1.05737
1.05748
1.05773
1.05789
1.05811
1.05805
1.0581
1.05812
1.05814
1.05812
1.05814
1.05803
1.05801
1.05799
1.05798
1.05793
1.05778
1.05762
1.05745
1.05724
1.05703
1.05683
1.05658
1.05619
1.05572
1.05529
1.0548
1.0543
1.05368
1.05307
1.05242
1.05176
1.05098
1.05017
1.04939
1.04866
1.04674
1.04451
1.04414
1.04423
1.04291
1.04127
1.03955
1.03778
1.03594
1.03411
1.03164
1.02927
1.02682
1.02449
1.02166
1.01919
1.0166
1.01445
1.01186
1.01035
1.00831
1.00793
1.00824
1.00626
1.00905
1.00788
1.00803
1.00965
1.00948
1.01141
1.0117
1.01228
1.01355
1.01411
1.01545
1.01581
1.01653
1.01706
1.01743
1.01842
1.01905
1.01959
1.01985
1.02051
1.02076
1.02132
1.02212
1.02295
1.02355
1.02413
1.02494
1.02586
1.02667
1.02789
1.02914
1.0305
1.03103
1.03235
1.03428
1.03546
1.03612
1.0377
1.04019
1.04272
1.04499
1.04641
1.04858
1.05256
1.05693
1.06049
1.06475
1.06867
1.07309
1.0789
1.08539
1.0904
1.0955
1.09818
1.09622
1.09436
1.06682
1.0425
0.99598
0.959417
0.927409
0.921352
0.92651
0.903808
0.888723
0.870512
0.86567
0.860659
0.854692
0.855914
0.862143
0.867725
0.866286
0.867052
0.872907
0.879927
0.883921
0.886903
0.888452
0.893064
0.896397
0.899906
0.902438
0.906245
0.908984
0.912154
0.913135
0.916846
0.919754
0.923045
0.925305
0.928594
0.93005
0.930591
0.932303
0.935855
0.937519
0.940926
0.942746
0.945657
0.94702
0.950619
0.952224
0.95384
0.952625
0.955084
0.952938
0.956619
0.954843
0.957576
0.958212
0.959955
0.962059
0.960744
0.962917
0.961769
0.961838
0.961899
0.96376
0.960566
0.96467
0.962489
0.986368
1.02124
1.10617
1.10612
1.09971
1.09571
1.09709
1.09629
1.09672
1.09653
1.09648
1.09667
1.09623
1.09636
1.09562
1.09559
1.0948
1.09476
1.09412
1.09412
1.09374
1.09383
1.09351
1.09355
1.09333
1.09341
1.09323
1.09327
1.09314
1.09323
1.09316
1.09327
1.09323
1.09333
1.09332
1.09343
1.09344
1.09356
1.09358
1.09373
1.09375
1.09389
1.09392
1.09405
1.09408
1.09421
1.09424
1.09438
1.09442
1.09458
1.09465
1.09484
1.09494
1.09517
1.0953
1.09558
1.09575
1.09606
1.09628
1.09661
1.09688
1.09726
1.09755
1.09798
1.0983
1.09875
1.0991
1.09959
1.09997
1.10046
1.10088
1.10138
1.10182
1.10232
1.10279
1.10331
1.10375
1.10428
1.10468
1.10518
1.10545
1.10558
1.1058
1.10608
1.10719
1.10557
1.10436
1.09413
1.08547
1.07213
1.05847
1.04675
1.03964
1.03595
1.03312
1.03142
1.02636
1.01957
1.01568
1.0155
1.0159
1.01616
1.01646
1.01555
1.01542
1.01534
1.01306
1.01647
1.01073
1.02823
1.01413
1.01962
1.00765
1.00906
1.01452
1.02654
1.03054
1.02193
1.0354
1.03543
1.02193
1.03059
1.02656
1.01454
1.00911
1.00774
1.01957
1.01409
1.02824
1.01077
1.01654
1.01307
1.01546
1.01542
1.01563
1.0165
1.01615
1.01576
1.01516
1.01475
1.01675
1.02169
1.02732
1.0293
1.03092
1.03189
1.03302
1.0332
1.03232
1.03137
1.03152
1.03218
1.03508
1.03593
1.03818
1.03899
1.04047
1.04163
1.04257
1.04376
1.04446
1.04554
1.0459
1.04718
1.04746
1.04868
1.04893
1.05
1.05034
1.05127
1.05146
1.05251
1.05294
1.05346
1.05351
1.05427
1.0544
1.05512
1.05572
1.05629
1.05657
1.05708
1.05724
1.05756
1.05784
1.05798
1.05804
1.05812
1.05837
1.05852
1.05872
1.05864
1.05867
1.05865
1.05864
1.05857
1.05854
1.05836
1.0583
1.0582
1.05811
1.05796
1.05772
1.05744
1.05716
1.05682
1.05648
1.05613
1.0557
1.05513
1.05446
1.05383
1.05309
1.05234
1.05145
1.05057
1.04962
1.04862
1.04749
1.04632
1.04513
1.04392
1.04144
1.03878
1.03811
1.0377
1.03576
1.03351
1.03112
1.02868
1.02613
1.02358
1.02031
1.01724
1.01404
1.01104
1.00747
1.00443
1.00126
0.998704
0.995703
0.994075
0.99186
0.991672
0.991988
0.990176
0.993376
0.992121
0.992842
0.994596
0.994744
0.996993
0.997462
0.998378
0.999895
1.00072
1.00233
1.00292
1.00389
1.00472
1.00534
1.00656
1.00741
1.00816
1.00873
1.00967
1.01018
1.01113
1.01231
1.0135
1.01441
1.01546
1.01681
1.01819
1.01961
1.02141
1.02329
1.02517
1.02638
1.02873
1.0315
1.03346
1.03542
1.03795
1.04107
1.04479
1.04931
1.05273
1.05568
1.05862
1.06279
1.06771
1.07298
1.07679
1.08168
1.08606
1.0909
1.09589
1.10068
1.10267
1.10233
1.0947
1.07937
1.06319
1.02644
0.987434
0.950509
0.937366
0.931663
0.899969
0.878083
0.856402
0.843902
0.836156
0.831183
0.823841
0.816579
0.818059
0.820029
0.821436
0.821252
0.824408
0.828855
0.833675
0.835563
0.840238
0.844251
0.848761
0.851579
0.855908
0.858494
0.862605
0.864723
0.868055
0.870557
0.874869
0.877229
0.881447
0.883065
0.884145
0.886017
0.889935
0.891323
0.895231
0.897289
0.901094
0.902638
0.90696
0.908662
0.911394
0.909953
0.91353
0.910927
0.914861
0.9132
0.91641
0.91712
0.918722
0.921549
0.920336
0.923097
0.92207
0.922345
0.922119
0.924475
0.921205
0.92536
0.922866
0.94812
1.00621
1.08209
1.11086
1.10661
1.10318
1.10399
1.10351
1.10372
1.10362
1.10351
1.10369
1.10325
1.10332
1.10259
1.10248
1.10174
1.10163
1.10103
1.10097
1.10061
1.10066
1.10037
1.10035
1.10016
1.10021
1.10007
1.1001
1.10001
1.10009
1.10007
1.10017
1.10017
1.10029
1.10032
1.10045
1.1005
1.10064
1.10071
1.10087
1.10095
1.10111
1.10118
1.10133
1.10141
1.10155
1.10162
1.10176
1.10183
1.10197
1.10205
1.10222
1.10231
1.10249
1.1026
1.1028
1.10292
1.10313
1.10328
1.1035
1.10366
1.10389
1.10407
1.10431
1.10449
1.10473
1.10493
1.10518
1.10538
1.10563
1.10584
1.10609
1.10631
1.10655
1.10677
1.10699
1.10719
1.10738
1.10754
1.10771
1.1078
1.10784
1.10777
1.10773
1.10766
1.10723
1.10518
1.10327
1.10006
1.09357
1.08447
1.07308
1.06139
1.05168
1.04332
1.03771
1.031
1.02245
1.0168
1.0158
1.01603
1.01612
1.01651
1.01547
1.01541
1.01532
1.01309
1.01637
1.01084
1.02813
1.01427
1.01986
1.00834
1.00902
1.01454
1.02643
1.03047
1.02207
1.03533
1.03534
1.02202
1.03057
1.02658
1.01464
1.00902
1.00826
1.01986
1.01424
1.02813
1.01085
1.01653
1.01308
1.01556
1.01536
1.01571
1.01652
1.01617
1.01574
1.01501
1.01449
1.01535
1.01886
1.02467
1.02687
1.02881
1.02973
1.02978
1.02986
1.03082
1.03166
1.03278
1.0324
1.03408
1.03587
1.03616
1.0384
1.03856
1.04055
1.0409
1.04246
1.04289
1.04418
1.04449
1.04578
1.04618
1.04729
1.04774
1.04866
1.04916
1.05001
1.05034
1.05126
1.05183
1.05228
1.05245
1.0531
1.05344
1.05404
1.05467
1.05521
1.05554
1.05601
1.05624
1.05651
1.05681
1.05694
1.057
1.05709
1.05729
1.05741
1.05756
1.05746
1.05747
1.05741
1.05737
1.05723
1.05715
1.05691
1.05678
1.05659
1.05643
1.05618
1.05585
1.05546
1.05508
1.05461
1.05415
1.05365
1.05308
1.05234
1.05149
1.05066
1.04972
1.04875
1.04762
1.04648
1.04527
1.04398
1.04256
1.04107
1.03954
1.03797
1.03512
1.03212
1.03106
1.03022
1.02782
1.02511
1.02221
1.01928
1.01622
1.01319
1.00944
1.00595
1.00234
0.999004
0.995101
0.991852
0.988488
0.985918
0.982861
0.981381
0.979319
0.979391
0.979722
0.978208
0.981485
0.980473
0.981525
0.983429
0.983946
0.986394
0.987168
0.988365
0.990165
0.991301
0.993111
0.993988
0.995194
0.996309
0.997215
0.99869
0.999852
1.00105
1.00191
1.00308
1.00397
1.00535
1.00688
1.00832
1.00964
1.01118
1.01286
1.01462
1.01615
1.01832
1.02061
1.02309
1.02499
1.02716
1.0292
1.03142
1.03443
1.03748
1.03998
1.04283
1.04603
1.04918
1.05306
1.05717
1.06124
1.06472
1.06897
1.07369
1.07907
1.08375
1.08948
1.09293
1.0988
1.09954
1.09892
1.09387
1.0765
1.05482
1.02185
0.989773
0.955018
0.937078
0.933727
0.908886
0.886941
0.86461
0.851417
0.838698
0.830219
0.828019
0.820749
0.81636
0.814305
0.815123
0.814622
0.814697
0.814245
0.817009
0.816106
0.818577
0.82028
0.823418
0.824024
0.826667
0.827684
0.831781
0.832166
0.835151
0.83687
0.840815
0.842692
0.846353
0.847734
0.849196
0.850158
0.854266
0.854975
0.859563
0.86147
0.865579
0.866586
0.871464
0.872709
0.876537
0.875267
0.878703
0.876244
0.881242
0.878961
0.882307
0.883382
0.885179
0.888135
0.887184
0.889774
0.889749
0.889616
0.890131
0.891337
0.890875
0.890923
0.895096
0.914818
0.979487
1.0619
1.10556
1.10857
1.10633
1.10666
1.10643
1.1065
1.10649
1.10638
1.1066
1.10621
1.10628
1.10559
1.10544
1.10473
1.10458
1.10403
1.10393
1.10361
1.10362
1.10336
1.10331
1.10313
1.10314
1.10303
1.10303
1.10296
1.10302
1.10301
1.10311
1.10313
1.10324
1.10328
1.1034
1.10347
1.10361
1.1037
1.10385
1.10395
1.1041
1.1042
1.10434
1.10443
1.10457
1.10465
1.10478
1.10486
1.10498
1.10506
1.1052
1.10528
1.10542
1.10551
1.10565
1.10574
1.10588
1.10598
1.10611
1.10622
1.10635
1.10645
1.10659
1.10669
1.10682
1.10692
1.10705
1.10715
1.10727
1.10737
1.10749
1.10759
1.1077
1.1078
1.1079
1.10798
1.10802
1.10809
1.10814
1.10818
1.10813
1.10779
1.10776
1.10753
1.10705
1.10578
1.10443
1.10262
1.09945
1.0942
1.08636
1.07626
1.06556
1.05463
1.04568
1.03666
1.02616
1.01769
1.01615
1.01608
1.01628
1.0165
1.01544
1.01543
1.01521
1.01307
1.01637
1.0107
1.02824
1.01408
1.01965
1.00755
1.0091
1.0145
1.02645
1.0305
1.02202
1.03538
1.03541
1.02185
1.03067
1.02654
1.01459
1.00906
1.00764
1.01959
1.0141
1.02822
1.01076
1.01663
1.01306
1.01558
1.01536
1.01565
1.01649
1.01615
1.01577
1.01491
1.01424
1.01467
1.01696
1.02241
1.02512
1.02628
1.02824
1.02856
1.02928
1.02949
1.02977
1.0306
1.03168
1.0329
1.03396
1.03533
1.03649
1.03748
1.03883
1.03959
1.0408
1.04155
1.04257
1.04313
1.04427
1.04479
1.04577
1.04634
1.04718
1.04778
1.04858
1.04902
1.04981
1.05044
1.05082
1.05112
1.05168
1.05218
1.05268
1.05328
1.0538
1.05419
1.05462
1.05486
1.05508
1.05543
1.05547
1.05562
1.05565
1.05586
1.05592
1.05604
1.05593
1.05589
1.0558
1.05572
1.05553
1.0554
1.0551
1.05492
1.05467
1.05443
1.0541
1.0537
1.05321
1.05275
1.05217
1.0516
1.05099
1.05029
1.04942
1.04842
1.04743
1.04632
1.04517
1.04385
1.04251
1.04108
1.03958
1.03792
1.03619
1.03441
1.03256
1.02945
1.02623
1.02487
1.02367
1.02094
1.01793
1.0147
1.01146
1.0081
1.0048
1.00078
0.997114
0.993324
0.989894
0.985897
0.982661
0.979331
0.976876
0.973935
0.972679
0.970709
0.970996
0.971446
0.970319
0.973656
0.972955
0.974289
0.976236
0.97701
0.979589
0.980572
0.981922
0.983911
0.985224
0.987342
0.988464
0.989971
0.991472
0.992622
0.994396
0.995919
0.997317
0.998645
1.00023
1.00149
1.00332
1.0051
1.00691
1.00853
1.01042
1.01245
1.0144
1.01636
1.01861
1.02104
1.02345
1.02538
1.028
1.03046
1.03281
1.03549
1.03799
1.04109
1.04419
1.04788
1.05119
1.05486
1.05817
1.06272
1.06683
1.07138
1.07551
1.08082
1.08516
1.09147
1.09355
1.09776
1.09928
1.09816
1.09078
1.07988
1.06343
1.037
1.00984
0.976778
0.952932
0.942286
0.918225
0.89517
0.87327
0.86373
0.845117
0.829733
0.828907
0.825191
0.81885
0.812377
0.813303
0.812585
0.813165
0.811117
0.812753
0.811842
0.813825
0.813369
0.815162
0.814328
0.815844
0.814491
0.817297
0.816705
0.818023
0.817557
0.820878
0.820737
0.824766
0.82467
0.82554
0.826262
0.830497
0.830275
0.834501
0.835997
0.840661
0.841356
0.846311
0.847032
0.851414
0.849683
0.854107
0.851359
0.855774
0.854042
0.857654
0.858566
0.860595
0.863024
0.863227
0.865046
0.866235
0.865347
0.86715
0.86688
0.868515
0.866684
0.872333
0.890578
0.954684
1.04139
1.09436
1.10693
1.10713
1.10752
1.10752
1.10755
1.10766
1.10757
1.10785
1.10752
1.10761
1.10698
1.10681
1.10614
1.10597
1.10546
1.10535
1.10506
1.10506
1.10483
1.10476
1.10459
1.10459
1.10449
1.10447
1.10441
1.10446
1.10447
1.10455
1.10459
1.10469
1.10474
1.10486
1.10494
1.10507
1.10517
1.10531
1.10542
1.10556
1.10567
1.10581
1.1059
1.10603
1.10612
1.10624
1.10632
1.10644
1.10652
1.10663
1.10671
1.10683
1.10691
1.10701
1.10709
1.10719
1.10727
1.10736
1.10743
1.10752
1.10758
1.10766
1.10772
1.10779
1.10785
1.10791
1.10796
1.10802
1.10807
1.10812
1.10817
1.10821
1.10825
1.10829
1.10831
1.10831
1.10833
1.10833
1.10819
1.10815
1.10788
1.10771
1.1074
1.10692
1.10603
1.10497
1.10358
1.10163
1.09832
1.09306
1.08535
1.07574
1.06446
1.0537
1.04288
1.03101
1.0194
1.01647
1.0162
1.01626
1.01651
1.01548
1.01545
1.01526
1.01312
1.0163
1.01083
1.02813
1.01427
1.01993
1.00816
1.00915
1.01451
1.02637
1.03043
1.02209
1.03535
1.0354
1.02197
1.03065
1.02664
1.01472
1.009
1.00826
1.01985
1.01418
1.02814
1.01086
1.01663
1.01306
1.01568
1.01527
1.01578
1.01651
1.01617
1.01571
1.01482
1.01393
1.0139
1.01543
1.02006
1.02339
1.02412
1.02595
1.02678
1.02758
1.02855
1.02921
1.03042
1.0303
1.03219
1.03277
1.03402
1.03514
1.03598
1.03728
1.03797
1.03921
1.0398
1.04097
1.04142
1.04258
1.04312
1.04406
1.04468
1.04548
1.0461
1.04691
1.04735
1.04811
1.04875
1.04916
1.04945
1.04996
1.05056
1.05103
1.05157
1.05208
1.05248
1.0529
1.05315
1.05334
1.05368
1.05372
1.05385
1.0539
1.05406
1.05408
1.05414
1.05401
1.05395
1.05383
1.05371
1.05346
1.05328
1.05292
1.05268
1.05236
1.05206
1.05165
1.05116
1.05059
1.05003
1.04935
1.04868
1.04794
1.04712
1.04612
1.04498
1.04384
1.04257
1.04124
1.03975
1.03822
1.0366
1.03491
1.03305
1.03112
1.02912
1.02703
1.02371
1.02032
1.01869
1.0172
1.01424
1.01102
1.00757
1.00416
1.00063
0.99719
0.993077
0.989392
0.985601
0.982224
0.978281
0.975209
0.972036
0.96981
0.967047
0.966074
0.964435
0.964959
0.965456
0.964564
0.9679
0.967514
0.968945
0.97113
0.972105
0.974903
0.976123
0.977775
0.980006
0.981587
0.983901
0.985314
0.987082
0.98878
0.990189
0.992244
0.994092
0.995844
0.997203
0.998947
1.0005
1.00227
1.00402
1.00588
1.00776
1.00964
1.01141
1.01358
1.01552
1.01769
1.01971
1.02241
1.02479
1.02688
1.02912
1.03174
1.03419
1.03717
1.04035
1.04339
1.0463
1.04949
1.05334
1.05703
1.06129
1.06515
1.06949
1.07352
1.07927
1.08317
1.08963
1.09296
1.09657
1.09752
1.09616
1.08965
1.07838
1.06176
1.0346
1.00755
0.980156
0.957832
0.943181
0.921957
0.907663
0.881818
0.859544
0.8545
0.847798
0.83464
0.824146
0.827562
0.822043
0.819743
0.816995
0.818186
0.816481
0.818203
0.816745
0.818068
0.817035
0.818554
0.817392
0.818797
0.817286
0.818039
0.816692
0.817655
0.81638
0.818219
0.815914
0.818437
0.817531
0.817265
0.815184
0.818051
0.816504
0.819606
0.819322
0.823569
0.823191
0.827627
0.827623
0.831725
0.830168
0.833897
0.831059
0.835866
0.833539
0.837468
0.837771
0.840342
0.841729
0.843188
0.843987
0.846424
0.844511
0.847381
0.84596
0.849146
0.846243
0.852152
0.869118
0.931961
1.01812
1.07846
1.10163
1.10586
1.10702
1.10757
1.10772
1.10799
1.10798
1.10835
1.10812
1.10827
1.10771
1.10754
1.10692
1.10674
1.10628
1.10618
1.10592
1.10591
1.10571
1.10564
1.10549
1.10548
1.10539
1.10536
1.10531
1.10535
1.10537
1.10545
1.1055
1.1056
1.10567
1.10578
1.10587
1.10599
1.1061
1.10624
1.10635
1.10649
1.1066
1.10673
1.10684
1.10696
1.10705
1.10716
1.10725
1.10735
1.10744
1.10754
1.10762
1.10772
1.10779
1.10788
1.10795
1.10803
1.10809
1.10815
1.1082
1.10826
1.1083
1.10835
1.10838
1.10841
1.10844
1.10846
1.10848
1.1085
1.10851
1.10852
1.10853
1.10853
1.10853
1.10853
1.10851
1.10846
1.10841
1.10835
1.10837
1.10824
1.10789
1.10778
1.10726
1.10691
1.10629
1.10542
1.10409
1.10278
1.10065
1.09709
1.09149
1.08355
1.07309
1.0616
1.04953
1.03663
1.02235
1.01697
1.0163
1.01629
1.01659
1.01542
1.01552
1.01511
1.01308
1.01629
1.01072
1.02826
1.0141
1.01965
1.00762
1.00912
1.01438
1.02643
1.03049
1.02204
1.03537
1.03544
1.02177
1.0307
1.02661
1.0146
1.00899
1.00748
1.01957
1.01403
1.02825
1.01078
1.01671
1.01305
1.01575
1.01528
1.01579
1.01649
1.01616
1.0157
1.01475
1.01377
1.01328
1.01364
1.01748
1.0214
1.02261
1.02437
1.02537
1.02591
1.02681
1.02719
1.02835
1.02904
1.03025
1.03108
1.03232
1.03321
1.03432
1.03523
1.0363
1.03708
1.03811
1.03888
1.03964
1.0406
1.04127
1.04209
1.04277
1.04353
1.04415
1.04497
1.04542
1.04615
1.04678
1.04721
1.04752
1.04798
1.04869
1.04913
1.04959
1.05007
1.0505
1.05091
1.05114
1.05129
1.05165
1.05163
1.05181
1.05187
1.05197
1.05193
1.05194
1.05179
1.0517
1.05154
1.05138
1.05108
1.05084
1.05043
1.05013
1.04973
1.04936
1.04887
1.04831
1.04764
1.047
1.04621
1.04544
1.04458
1.04364
1.04251
1.04124
1.03995
1.03852
1.03704
1.03538
1.03369
1.03191
1.03004
1.02802
1.02591
1.02374
1.02146
1.01799
1.01448
1.01266
1.01093
1.00782
1.00451
1.00095
0.997487
0.993918
0.990483
0.986404
0.98284
0.979174
0.975954
0.972196
0.969386
0.966471
0.964486
0.962011
0.96133
0.959776
0.960511
0.96129
0.960836
0.96433
0.964414
0.966185
0.968567
0.969945
0.973032
0.974583
0.97655
0.979001
0.980854
0.983407
0.985131
0.987171
0.989201
0.990581
0.992733
0.994573
0.996218
0.997785
0.999692
1.00115
1.00304
1.00471
1.00674
1.00837
1.01024
1.01228
1.01431
1.01626
1.01866
1.02101
1.02336
1.02525
1.02785
1.0302
1.03265
1.03561
1.03811
1.04117
1.04414
1.04799
1.05075
1.05491
1.0581
1.06262
1.06595
1.07139
1.07427
1.08035
1.08297
1.08934
1.09161
1.09564
1.09619
1.09475
1.0879
1.07906
1.06515
1.04511
1.01951
0.991012
0.968859
0.954465
0.933777
0.907179
0.888332
0.88101
0.857814
0.840131
0.839006
0.835133
0.823076
0.818814
0.818032
0.818423
0.815838
0.813575
0.814695
0.81533
0.814475
0.814867
0.814412
0.816064
0.815461
0.81598
0.815581
0.813967
0.814423
0.814959
0.815233
0.814016
0.815297
0.814239
0.812919
0.812105
0.813456
0.811857
0.813688
0.812108
0.815235
0.81336
0.817048
0.815432
0.819054
0.816072
0.819806
0.81623
0.82028
0.817232
0.821207
0.821058
0.824491
0.824468
0.826717
0.82602
0.829735
0.826875
0.830817
0.828015
0.832462
0.828288
0.834941
0.849835
0.910725
0.994731
1.05925
1.09215
1.10207
1.10494
1.10642
1.10694
1.10753
1.1077
1.10823
1.10814
1.10839
1.10794
1.10782
1.10725
1.10708
1.10667
1.10659
1.10637
1.10638
1.10621
1.10615
1.10603
1.10601
1.10593
1.1059
1.10587
1.10591
1.10594
1.10602
1.10608
1.10618
1.10626
1.10637
1.10646
1.10659
1.1067
1.10684
1.10695
1.10709
1.10721
1.10734
1.10744
1.10756
1.10766
1.10777
1.10785
1.10795
1.10804
1.10813
1.10821
1.1083
1.10837
1.10845
1.10851
1.10858
1.10863
1.10868
1.10872
1.10876
1.10878
1.10881
1.10882
1.10883
1.10884
1.10884
1.10883
1.10882
1.10881
1.1088
1.10877
1.10875
1.10872
1.10869
1.10864
1.10859
1.1085
1.1084
1.10839
1.10827
1.10795
1.10762
1.10733
1.10693
1.10644
1.10569
1.10471
1.10365
1.10209
1.09961
1.09557
1.0893
1.08021
1.06891
1.05621
1.04274
1.02654
1.01781
1.01643
1.01636
1.01654
1.0153
1.01549
1.01508
1.01314
1.01621
1.01088
1.02815
1.01429
1.01993
1.00795
1.00912
1.0145
1.02627
1.03041
1.02206
1.03533
1.03542
1.02195
1.03068
1.02662
1.01479
1.00903
1.00828
1.01976
1.01416
1.02813
1.01087
1.01671
1.01304
1.01581
1.0152
1.01584
1.0165
1.01617
1.01569
1.01469
1.01363
1.01287
1.01282
1.01519
1.01913
1.02036
1.02175
1.02337
1.02389
1.02531
1.02575
1.02703
1.02736
1.0288
1.02936
1.0306
1.03141
1.0324
1.03337
1.03421
1.03519
1.03592
1.0369
1.03751
1.03851
1.03912
1.03997
1.04059
1.04141
1.04198
1.04284
1.04328
1.04399
1.04459
1.04509
1.04538
1.04578
1.04649
1.04696
1.04739
1.04784
1.04827
1.04866
1.04887
1.04902
1.04936
1.04933
1.0495
1.04954
1.04963
1.0495
1.04948
1.0493
1.04919
1.04899
1.04878
1.04841
1.04812
1.04765
1.04729
1.04682
1.04638
1.0458
1.04517
1.04442
1.04368
1.0428
1.04192
1.04095
1.03989
1.03863
1.03724
1.03581
1.03425
1.03262
1.03083
1.02901
1.02708
1.02508
1.02293
1.0207
1.01839
1.01598
1.01242
1.00887
1.00692
1.00504
1.00189
0.998585
0.995047
0.99165
0.988173
0.984851
0.980933
0.977596
0.974112
0.971156
0.967648
0.965175
0.962577
0.960908
0.958741
0.958398
0.957344
0.958325
0.959389
0.959129
0.96285
0.963164
0.965079
0.967731
0.969123
0.972274
0.973991
0.976277
0.978743
0.980597
0.983082
0.984755
0.986655
0.988565
0.990083
0.992167
0.994082
0.995857
0.997236
0.999004
1.00067
1.00234
1.00429
1.00609
1.00787
1.00975
1.01185
1.01375
1.01587
1.01798
1.02019
1.02251
1.02534
1.02725
1.02981
1.032
1.03495
1.03721
1.04103
1.04342
1.04724
1.04939
1.05417
1.05667
1.06199
1.06472
1.0704
1.07299
1.07937
1.08283
1.08778
1.09121
1.09423
1.09477
1.09298
1.08649
1.07802
1.06373
1.0429
1.01924
0.994083
0.971905
0.956209
0.932723
0.92104
0.900187
0.877179
0.856166
0.858941
0.849345
0.833639
0.828309
0.830514
0.82455
0.822589
0.820273
0.821537
0.819218
0.82082
0.819321
0.820683
0.819291
0.820715
0.819824
0.819944
0.82008
0.818165
0.818104
0.818007
0.818585
0.817456
0.818323
0.818216
0.815884
0.814874
0.815151
0.814429
0.815265
0.81453
0.815233
0.814613
0.815709
0.815576
0.816285
0.81283
0.81516
0.809993
0.813237
0.809324
0.812395
0.809955
0.813472
0.811389
0.814829
0.812413
0.81677
0.812286
0.817187
0.813034
0.81861
0.813047
0.820666
0.832435
0.890708
0.972202
1.03586
1.07831
1.095
1.1008
1.10385
1.10508
1.10617
1.10665
1.10745
1.10758
1.10801
1.10771
1.10767
1.10719
1.10706
1.10671
1.10667
1.10651
1.10653
1.10641
1.10638
1.10629
1.10627
1.10622
1.10619
1.10617
1.10621
1.10626
1.10634
1.10641
1.10652
1.10661
1.10673
1.10683
1.10696
1.10708
1.10722
1.10734
1.10748
1.1076
1.10773
1.10783
1.10795
1.10805
1.10816
1.10825
1.10834
1.10843
1.10852
1.1086
1.10868
1.10875
1.10883
1.10889
1.10894
1.10899
1.10903
1.10906
1.10909
1.10911
1.10912
1.10912
1.10912
1.10911
1.1091
1.10907
1.10905
1.10902
1.10898
1.10894
1.1089
1.10885
1.10879
1.10874
1.10867
1.10855
1.10842
1.10834
1.10821
1.10802
1.10772
1.10738
1.10699
1.10663
1.10596
1.10523
1.10435
1.10312
1.10132
1.09837
1.09352
1.08594
1.07541
1.06265
1.04896
1.03157
1.01918
1.01663
1.01639
1.01661
1.01528
1.01552
1.015
1.01309
1.01624
1.0107
1.02825
1.0141
1.01969
1.00768
1.00915
1.01423
1.02646
1.03048
1.02205
1.03533
1.03544
1.02166
1.03072
1.02661
1.01462
1.00904
1.00764
1.01954
1.01407
1.02822
1.01078
1.01681
1.01302
1.01586
1.01522
1.01581
1.01644
1.01617
1.01574
1.01466
1.01355
1.01251
1.01198
1.01302
1.01668
1.01884
1.01977
1.02151
1.02183
1.02311
1.02357
1.02482
1.02544
1.0266
1.02732
1.02847
1.02921
1.03029
1.03106
1.03209
1.03283
1.03374
1.03459
1.03524
1.03622
1.03683
1.03763
1.03826
1.03905
1.03962
1.04042
1.04091
1.04156
1.04217
1.04274
1.04303
1.04339
1.04408
1.04458
1.04497
1.04539
1.0458
1.04618
1.04638
1.0465
1.04681
1.04678
1.04694
1.04703
1.04703
1.04683
1.04677
1.04655
1.04643
1.04617
1.04592
1.0455
1.04516
1.04462
1.0442
1.04366
1.04315
1.0425
1.04179
1.04096
1.04013
1.03916
1.03818
1.0371
1.03593
1.03457
1.03306
1.03152
1.02984
1.0281
1.0262
1.02427
1.02225
1.02016
1.01792
1.01561
1.01324
1.01076
1.0072
1.0037
1.00172
0.999763
0.996671
0.993509
0.990111
0.98689
0.983594
0.980559
0.97695
0.974129
0.971089
0.968454
0.96576
0.96343
0.961694
0.959892
0.959227
0.957988
0.958281
0.957467
0.960614
0.958754
0.964221
0.962875
0.966675
0.967506
0.970903
0.972098
0.975623
0.975915
0.980152
0.980279
0.984536
0.984518
0.988223
0.988461
0.991714
0.992095
0.995599
0.995512
0.998755
0.99887
1.00226
1.00243
1.00582
1.0062
1.00957
1.00966
1.01338
1.01376
1.01753
1.01821
1.02199
1.02282
1.0265
1.02734
1.03139
1.0322
1.03686
1.03774
1.04233
1.04358
1.04912
1.04999
1.05524
1.05726
1.06267
1.06512
1.07084
1.07352
1.07839
1.08204
1.08698
1.08941
1.093
1.0934
1.09152
1.08533
1.07853
1.06486
1.04892
1.0263
1.00261
0.981565
0.964796
0.944584
0.924573
0.898851
0.886442
0.87483
0.857426
0.843797
0.838926
0.835449
0.826568
0.822429
0.821526
0.820078
0.817709
0.818697
0.817325
0.81797
0.816699
0.818063
0.817328
0.81869
0.817325
0.817619
0.816274
0.81655
0.816139
0.816273
0.816313
0.816749
0.816417
0.814712
0.813527
0.814238
0.81296
0.813264
0.812782
0.813555
0.813284
0.814313
0.814113
0.815637
0.811268
0.812795
0.808954
0.810005
0.806298
0.807366
0.806194
0.807492
0.804969
0.808058
0.803442
0.807585
0.802385
0.80689
0.801781
0.807349
0.800921
0.808624
0.817392
0.8719
0.952164
1.01123
1.06038
1.08426
1.09395
1.0994
1.10184
1.10375
1.10473
1.10593
1.10637
1.10707
1.10699
1.1071
1.10674
1.10668
1.10641
1.10644
1.10635
1.10641
1.10635
1.10637
1.10631
1.10632
1.10628
1.10627
1.10627
1.10632
1.10638
1.10648
1.10656
1.10668
1.10679
1.10691
1.10703
1.10717
1.10729
1.10743
1.10756
1.1077
1.10782
1.10795
1.10807
1.10818
1.10829
1.10839
1.10848
1.10858
1.10867
1.10876
1.10884
1.10892
1.10899
1.10906
1.10912
1.10917
1.10922
1.10926
1.10928
1.1093
1.10931
1.10932
1.10932
1.10931
1.10929
1.10926
1.10923
1.10919
1.10915
1.10911
1.10905
1.109
1.10893
1.10886
1.1088
1.10872
1.10859
1.10846
1.10834
1.10822
1.10804
1.10779
1.10747
1.10712
1.10672
1.10623
1.10566
1.1049
1.10391
1.10254
1.10033
1.0966
1.09042
1.081
1.06863
1.05511
1.03713
1.02154
1.01692
1.01641
1.01667
1.01526
1.01552
1.01493
1.01313
1.01609
1.01089
1.02815
1.01429
1.01998
1.0081
1.009
1.01437
1.02606
1.03035
1.02208
1.03529
1.03539
1.02187
1.03068
1.02661
1.01486
1.00908
1.00828
1.01973
1.0142
1.02812
1.01088
1.0168
1.01301
1.01601
1.0152
1.01596
1.01648
1.01613
1.01578
1.01465
1.01352
1.01229
1.0113
1.01189
1.01407
1.01657
1.01723
1.01928
1.01978
1.02115
1.02171
1.02289
1.02346
1.02464
1.02524
1.02637
1.02706
1.02801
1.02887
1.0297
1.03059
1.03128
1.03224
1.03279
1.03378
1.0343
1.03518
1.03568
1.03658
1.03707
1.03786
1.03842
1.03899
1.03956
1.04021
1.0405
1.04083
1.0414
1.04197
1.04237
1.04274
1.04314
1.04348
1.04367
1.04379
1.04409
1.04404
1.04419
1.04422
1.04423
1.04393
1.04385
1.04361
1.04346
1.04315
1.04285
1.04237
1.04198
1.04139
1.04091
1.04031
1.03973
1.039
1.03823
1.03732
1.03641
1.03535
1.03429
1.03311
1.03185
1.03039
1.02879
1.02716
1.0254
1.02358
1.02162
1.01963
1.01757
1.01544
1.01319
1.01087
1.0085
1.00604
1.00258
0.99925
0.997334
0.995411
0.9925
0.98963
0.986599
0.983812
0.981006
0.978337
0.975413
0.972702
0.970117
0.967718
0.965314
0.963158
0.961607
0.959825
0.959195
0.958011
0.95831
0.957761
0.9607
0.958868
0.964225
0.962972
0.966485
0.967496
0.970747
0.972119
0.975475
0.976019
0.980124
0.980332
0.984463
0.984614
0.988088
0.988319
0.991465
0.991906
0.995444
0.995739
0.998712
0.998807
1.002
1.00241
1.00577
1.00611
1.00936
1.00989
1.01339
1.014
1.01719
1.01831
1.02189
1.02303
1.02653
1.02766
1.03117
1.03255
1.03609
1.0381
1.04208
1.04412
1.04815
1.05081
1.05476
1.05754
1.06168
1.06523
1.0698
1.07333
1.0775
1.08127
1.08604
1.08891
1.09145
1.09193
1.09
1.0833
1.07634
1.0635
1.04588
1.02613
1.00473
0.982876
0.96755
0.947655
0.927822
0.909553
0.89507
0.875218
0.861347
0.855502
0.847712
0.839043
0.831867
0.829889
0.82827
0.825173
0.824296
0.824307
0.822546
0.82339
0.821596
0.822533
0.821446
0.822752
0.821586
0.821381
0.819692
0.820101
0.819306
0.819944
0.818874
0.819497
0.81822
0.817017
0.815771
0.816003
0.815121
0.815361
0.814691
0.81541
0.814788
0.815738
0.815336
0.816064
0.813622
0.813295
0.810264
0.810308
0.807971
0.807967
0.807274
0.807828
0.806004
0.806678
0.804666
0.80544
0.801697
0.802571
0.799826
0.800834
0.797759
0.800289
0.805602
0.856971
0.934764
0.988104
1.03906
1.06929
1.084
1.09264
1.09689
1.10001
1.10174
1.10353
1.10441
1.10548
1.10571
1.10604
1.10586
1.10591
1.10577
1.10588
1.10588
1.10601
1.10603
1.10611
1.10612
1.10615
1.10615
1.10616
1.10618
1.10625
1.10633
1.10644
1.10655
1.10668
1.1068
1.10695
1.10708
1.10722
1.10736
1.10751
1.10765
1.10779
1.10792
1.10805
1.10817
1.10829
1.1084
1.1085
1.1086
1.1087
1.10879
1.10888
1.10896
1.10904
1.10911
1.10918
1.10924
1.10929
1.10934
1.10937
1.1094
1.10942
1.10943
1.10943
1.10942
1.10941
1.10939
1.10936
1.10932
1.10928
1.10923
1.10917
1.10911
1.10905
1.10897
1.10889
1.10882
1.10873
1.10863
1.1085
1.10835
1.10821
1.10806
1.10785
1.10757
1.10726
1.1069
1.10648
1.106
1.10538
1.10456
1.10348
1.10178
1.09889
1.09392
1.0857
1.07409
1.061
1.04296
1.02482
1.01746
1.01646
1.01675
1.01522
1.01553
1.01494
1.0131
1.01618
1.01071
1.02829
1.01413
1.01966
1.0075
1.00915
1.01416
1.02647
1.03048
1.02205
1.03534
1.03546
1.02162
1.03077
1.02666
1.01464
1.00908
1.00792
1.01945
1.01402
1.02823
1.0108
1.01689
1.01298
1.01602
1.01523
1.01592
1.01655
1.01602
1.01582
1.01464
1.01351
1.01218
1.01088
1.01073
1.01194
1.01468
1.01545
1.01693
1.01766
1.01863
1.01943
1.02039
1.02125
1.02215
1.02298
1.02388
1.02469
1.02553
1.02638
1.02724
1.02801
1.0288
1.02962
1.0303
1.0311
1.03179
1.03248
1.03307
1.03389
1.03439
1.03513
1.03572
1.03623
1.03673
1.03754
1.03782
1.03813
1.03854
1.03916
1.0396
1.03992
1.04029
1.04061
1.04082
1.04093
1.04114
1.04112
1.04122
1.04128
1.04122
1.0409
1.04076
1.04048
1.04032
1.03996
1.03961
1.03908
1.03864
1.038
1.03748
1.03681
1.03618
1.03538
1.03455
1.03357
1.0326
1.03147
1.03034
1.02908
1.02775
1.02622
1.02457
1.02289
1.02109
1.01924
1.01727
1.01529
1.01325
1.01115
1.00896
1.00671
1.00444
1.00208
0.998908
0.995893
0.994259
0.992566
0.990395
0.98781
0.98517
0.982712
0.980252
0.977847
0.975088
0.972614
0.970135
0.96786
0.965338
0.963335
0.961701
0.960165
0.959373
0.958321
0.958559
0.957971
0.960723
0.959342
0.964371
0.963626
0.966907
0.967837
0.971033
0.972367
0.975631
0.976346
0.980194
0.980616
0.98452
0.984905
0.988334
0.988913
0.991718
0.99256
0.995686
0.995906
0.998932
0.999421
1.00223
1.00285
1.00596
1.00683
1.0097
1.01028
1.01342
1.01442
1.0176
1.01876
1.02201
1.02365
1.02679
1.0282
1.03135
1.03309
1.03691
1.03859
1.04257
1.04441
1.04861
1.05128
1.05538
1.05843
1.06256
1.06493
1.06995
1.0731
1.07765
1.08019
1.08445
1.08718
1.08991
1.09036
1.08834
1.08224
1.07631
1.0651
1.04995
1.03148
1.01115
0.990215
0.973453
0.953179
0.936277
0.914339
0.899905
0.879316
0.868857
0.85775
0.84718
0.838447
0.834759
0.830161
0.824826
0.824078
0.822675
0.820953
0.819757
0.819801
0.820183
0.820564
0.819214
0.819778
0.818753
0.819723
0.818181
0.817983
0.816647
0.817864
0.817115
0.817944
0.816717
0.815169
0.815904
0.814426
0.813719
0.814127
0.813298
0.813953
0.813673
0.813928
0.814999
0.814598
0.813304
0.812447
0.810273
0.809452
0.807838
0.806759
0.806993
0.806254
0.806297
0.805024
0.804402
0.803057
0.801245
0.800325
0.79832
0.798418
0.795245
0.796133
0.7984
0.845942
0.920921
0.970862
1.01369
1.05027
1.07033