/*--------------------------------*- C++ -*----------------------------------*\
| =========                 |                                                 |
| \\      /  F ield         | OpenFOAM: The Open Source CFD Toolbox           |
|  \\    /   O peration     | Version:  v2006                                 |
|   \\  /    A nd           | Website:  www.openfoam.com                      |
|    \\/     M anipulation  |                                                 |
\*---------------------------------------------------------------------------*/
FoamFile
{
    version     2.0;
    format      ascii;
    class       volVectorField;
    location    "185";
    object      U;
}
// * * * * * * * * * * * * * * * * * * * * * * * * * * * * * * * * * * * * * //

dimensions      [0 1 -1 0 0 0 0];


internalField   nonuniform List<vector> 
93840
(
(0.795573 -0.0115736 -9.02651e-17)
(0.807147 0.0114537 -6.66443e-17)
(0.791428 0.001817 -4.98474e-17)
(0.839213 -0.00652467 -1.23724e-16)
(0.809514 0.02314 4.94416e-17)
(0.865023 -0.00193948 -7.40645e-16)
(0.824102 0.0288823 3.82949e-16)
(0.828985 0.0203931 2.63575e-16)
(0.824318 0.0174568 -1.14804e-16)
(0.804961 0.0209367 -2.02816e-16)
(0.822357 0.0150343 5.27349e-17)
(0.812711 0.0170421 -5.62927e-17)
(0.82005 0.023107 2.02049e-17)
(0.81641 0.0129407 1.09422e-16)
(0.811221 0.0264349 1.22084e-16)
(0.81104 0.0159135 5.88191e-17)
(0.803925 0.0315784 8.22917e-17)
(0.805804 0.0243307 3.04282e-17)
(0.806721 0.0355446 4.45874e-17)
(0.808272 0.0346543 3.59933e-17)
(0.806217 0.038109 3.07336e-17)
(0.790242 0.0371364 2.6439e-17)
(0.757846 0.0386444 2.42715e-17)
(0.718524 0.031109 2.20639e-17)
(0.6979 0.0254452 2.09819e-17)
(0.684803 0.0202171 2.07602e-17)
(0.681329 0.0133166 1.94616e-17)
(0.679739 0.00858994 1.91323e-17)
(0.669146 0.00660294 1.75401e-17)
(0.646007 0.00704308 1.71671e-17)
(0.626146 0.00348294 1.62621e-17)
(0.561685 -0.00247791 1.59471e-17)
(0.567786 -0.0264422 1.54769e-17)
(0.590593 -0.0311264 1.5885e-17)
(0.539304 -0.0286306 1.54979e-17)
(0.560801 -0.0318405 1.58434e-17)
(0.524076 -0.0261497 1.54834e-17)
(0.540171 -0.0301348 1.58235e-17)
(0.510943 -0.0238903 1.55051e-17)
(0.522325 -0.02694 1.57797e-17)
(0.499072 -0.0208945 1.55459e-17)
(0.509268 -0.023158 1.57629e-17)
(0.489462 -0.0186187 1.55864e-17)
(0.497175 -0.0199908 1.57554e-17)
(0.480264 -0.0167651 1.56123e-17)
(0.485405 -0.0173497 1.57658e-17)
(0.470017 -0.014397 1.56258e-17)
(0.474062 -0.0138675 1.57645e-17)
(0.461778 -0.0118532 1.56512e-17)
(0.463544 -0.0111681 1.57607e-17)
(0.452578 -0.00887071 1.56747e-17)
(0.454929 -0.00810771 1.57323e-17)
(0.444001 -0.00694693 1.5701e-17)
(0.44232 -0.00501192 1.56926e-17)
(0.43508 -0.00144841 1.57015e-17)
(0.438431 -0.000208653 1.56844e-17)
(0.431756 0.000192602 1.57079e-17)
(0.431274 0.000511442 1.56657e-17)
(0.422737 0.00151344 1.56901e-17)
(0.419975 0.00416006 1.5625e-17)
(0.415354 0.00598795 1.56409e-17)
(0.41366 0.00690269 1.5567e-17)
(0.407508 0.00925512 1.55857e-17)
(0.4072 0.0115838 1.56219e-17)
(0.404051 0.0129349 1.56849e-17)
(0.402104 0.0145904 1.55018e-17)
(0.399811 0.0167317 1.5599e-17)
(0.39973 0.0181799 1.55685e-17)
(0.397472 0.019488 1.56964e-17)
(0.396347 0.0212373 1.58097e-17)
(0.395183 0.0227271 1.57513e-17)
(0.394002 0.0242146 1.61842e-17)
(0.393566 0.0260948 1.60616e-17)
(0.393676 0.0275526 1.64435e-17)
(0.393292 0.0289711 1.54718e-17)
(0.393222 0.0306243 1.53608e-17)
(0.39378 0.0320678 1.60754e-17)
(0.393879 0.0337066 1.58739e-17)
(0.395247 0.0353495 1.59937e-17)
(0.395988 0.0365604 1.56784e-17)
(0.396769 0.0379713 1.52638e-17)
(0.39743 0.0394595 1.57598e-17)
(0.398645 0.0411833 1.56411e-17)
(0.400577 0.042956 1.6022e-17)
(0.402945 0.0443324 1.53449e-17)
(0.404831 0.0458243 1.623e-17)
(0.407516 0.0472988 1.61642e-17)
(0.409701 0.048622 1.58322e-17)
(0.412018 0.0501642 1.64141e-17)
(0.41452 0.0519763 1.64057e-17)
(0.41843 0.054045 1.88697e-17)
(0.423036 0.0556722 1.8138e-17)
(0.427313 0.0572554 1.86244e-17)
(0.432273 0.0588786 1.87883e-17)
(0.437219 0.0604845 2.13237e-17)
(0.443197 0.0621419 2.17578e-17)
(0.449067 0.0634978 2.45472e-17)
(0.455161 0.064984 2.22545e-17)
(0.461557 0.0664326 2.45404e-17)
(0.468733 0.0680098 2.72631e-17)
(0.47629 0.0691976 2.48714e-17)
(0.483517 0.070356 2.73977e-17)
(0.490655 0.0723912 3.03968e-17)
(0.506064 0.0761383 2.63861e-17)
(0.523897 0.075583 2.85633e-17)
(0.528779 0.0720669 2.26482e-17)
(0.530586 0.0725657 2.9449e-17)
(0.54198 0.0756277 2.3577e-17)
(0.555684 0.0762087 3.30985e-17)
(0.569636 0.0764514 2.6369e-17)
(0.583469 0.0759398 3.23975e-17)
(0.597495 0.0752811 2.44915e-17)
(0.611006 0.0742657 3.03848e-17)
(0.627874 0.0737622 2.43842e-17)
(0.643574 0.0712991 3.10294e-17)
(0.659327 0.0686398 2.77083e-17)
(0.674014 0.0651574 2.8642e-17)
(0.691336 0.0623903 2.72588e-17)
(0.706053 0.0568377 2.83359e-17)
(0.720717 0.0521445 2.70825e-17)
(0.732697 0.0453238 2.79961e-17)
(0.746745 0.0404154 2.87408e-17)
(0.754683 0.0309281 2.91307e-17)
(0.764904 0.0248621 2.9079e-17)
(0.767055 0.0141227 3.01515e-17)
(0.765939 0.00890867 2.94793e-17)
(0.774135 -2.26664e-05 3.10942e-17)
(0.762242 -0.00730088 3.07291e-17)
(0.766959 -0.0114391 3.24728e-17)
(0.765099 -0.020852 3.24815e-17)
(0.758389 -0.0250461 3.43354e-17)
(0.757449 -0.0315943 3.45166e-17)
(0.749518 -0.0351473 3.63958e-17)
(0.748 -0.0400321 3.60175e-17)
(0.744897 -0.0442211 3.7952e-17)
(0.74005 -0.0488929 3.62124e-17)
(0.735815 -0.0519456 3.8024e-17)
(0.731803 -0.0554854 3.71785e-17)
(0.72845 -0.058297 3.82533e-17)
(0.726484 -0.0616318 3.73869e-17)
(0.723813 -0.0650632 3.85867e-17)
(0.722638 -0.0693825 3.77146e-17)
(0.718288 -0.0725879 3.9651e-17)
(0.71556 -0.0757499 4.16352e-17)
(0.713 -0.0788652 4.24135e-17)
(0.711956 -0.0820307 4.34945e-17)
(0.709209 -0.0858118 4.53747e-17)
(0.707792 -0.0900051 4.58559e-17)
(0.703709 -0.0941598 4.6758e-17)
(0.70012 -0.0981512 4.78322e-17)
(0.696519 -0.101573 4.75663e-17)
(0.69318 -0.105826 4.90034e-17)
(0.688567 -0.109551 4.79703e-17)
(0.683586 -0.11382 4.89316e-17)
(0.678172 -0.117971 4.84571e-17)
(0.672925 -0.12284 4.86204e-17)
(0.666372 -0.12695 4.81849e-17)
(0.660081 -0.130075 4.87096e-17)
(0.651759 -0.13308 4.7175e-17)
(0.643754 -0.138163 4.80667e-17)
(0.63705 -0.144136 4.77062e-17)
(0.631055 -0.148875 4.934e-17)
(0.622129 -0.150494 4.75572e-17)
(0.611697 -0.154362 4.77671e-17)
(0.600316 -0.161746 4.73296e-17)
(0.586845 -0.170783 4.84179e-17)
(0.572247 -0.177671 4.73753e-17)
(0.560046 -0.180562 4.89223e-17)
(0.547531 -0.180824 4.69618e-17)
(0.529254 -0.181755 4.86157e-17)
(0.503431 -0.18858 4.76184e-17)
(0.476793 -0.199721 4.97875e-17)
(0.457167 -0.202597 4.88462e-17)
(0.431863 -0.195524 5.02623e-17)
(0.393546 -0.19711 5.06877e-17)
(0.355956 -0.199387 5.03947e-17)
(0.314905 -0.191289 5.21507e-17)
(0.254559 -0.170912 5.27824e-17)
(0.195237 -0.146922 5.30419e-17)
(0.124706 -0.0998861 5.2508e-17)
(0.0789409 -0.0514726 5.46215e-17)
(-0.020654 0.105991 2.77595e-17)
(-0.0252088 0.207024 3.32111e-17)
(-0.0218251 0.485678 4.18853e-17)
(0.10677 0.626078 4.42743e-17)
(0.245022 0.810135 4.66381e-17)
(0.49433 0.875685 4.91074e-17)
(0.670452 0.891058 4.67138e-17)
(0.792253 0.771133 4.2526e-17)
(0.835033 0.713772 4.56074e-17)
(0.941125 0.728125 4.8016e-17)
(1.02352 0.680887 4.65938e-17)
(1.12109 0.630303 4.3721e-17)
(1.17252 0.602697 4.26008e-17)
(1.18663 0.572902 4.06898e-17)
(1.19768 0.519489 4.67487e-17)
(1.22665 0.470994 5.03658e-17)
(1.25208 0.446783 4.6151e-17)
(1.24998 0.43203 4.23701e-17)
(1.24321 0.406437 4.58726e-17)
(1.2407 0.377567 4.84771e-17)
(1.24237 0.3545 4.89089e-17)
(1.23643 0.343065 4.76789e-17)
(1.23315 0.32798 4.70111e-17)
(1.22472 0.310242 4.89583e-17)
(1.22187 0.296548 5.06524e-17)
(1.21361 0.282984 5.12343e-17)
(1.2107 0.271802 5.17291e-17)
(1.20077 0.259201 5.28049e-17)
(1.19789 0.249706 5.26655e-17)
(1.19065 0.237665 5.32009e-17)
(1.18714 0.227493 5.3507e-17)
(1.17876 0.218135 5.3657e-17)
(1.17638 0.20853 5.40671e-17)
(1.16922 0.197863 5.45682e-17)
(1.16595 0.189709 5.51443e-17)
(1.15545 0.182168 5.58945e-17)
(1.15171 0.173821 5.62622e-17)
(1.14125 0.166212 5.64487e-17)
(1.14021 0.15612 5.70246e-17)
(1.13851 0.150021 5.78391e-17)
(1.13485 0.141473 5.83801e-17)
(1.12341 0.133318 5.88489e-17)
(1.1217 0.127139 5.96316e-17)
(1.1115 0.121412 6.00411e-17)
(1.10713 0.117175 6.14506e-17)
(1.0964 0.111285 6.15652e-17)
(1.09363 0.106626 6.2534e-17)
(1.08113 0.101035 6.29964e-17)
(1.07831 0.0968146 6.34318e-17)
(1.07142 0.0915275 6.2698e-17)
(1.07596 0.0851011 6.26609e-17)
(1.06812 0.0786309 6.29443e-17)
(1.07434 0.0712243 6.3245e-17)
(1.06397 0.0652473 6.26108e-17)
(1.066 0.0618463 6.16556e-17)
(1.06156 0.0562742 6.063e-17)
(1.05363 0.0511799 5.99174e-17)
(1.05338 0.0480425 5.8829e-17)
(1.04176 0.0425036 5.82824e-17)
(1.04951 0.0385196 5.78971e-17)
(1.03629 0.0339845 5.68604e-17)
(1.0454 0.0305201 5.68257e-17)
(1.03621 0.0241246 5.70029e-17)
(1.04585 0.0190158 5.66018e-17)
(1.02846 0.0132577 5.62441e-17)
(1.04942 0.0102471 5.62966e-17)
(1.02421 0.00269384 5.55051e-17)
(1.04426 0.0013086 5.59944e-17)
(0.94432 -0.00419097 5.51824e-17)
(0.822914 -0.000537566 5.49659e-17)
(0.222073 0.0108075 4.96572e-17)
(-0.0636021 0.00505752 4.51104e-17)
(-0.123975 0.00248135 4.23449e-17)
(-0.15634 0.00501173 4.10566e-17)
(-0.156389 0.00608239 4.14162e-17)
(-0.164995 0.00720808 4.04645e-17)
(-0.157834 0.00798544 3.98642e-17)
(-0.161643 0.00919672 3.83629e-17)
(-0.15532 0.00977296 3.72121e-17)
(-0.156001 0.010662 3.75213e-17)
(-0.150594 0.0110774 3.63513e-17)
(-0.150446 0.0118927 3.62754e-17)
(-0.147308 0.0123323 3.54287e-17)
(-0.147156 0.0131453 3.35818e-17)
(-0.145587 0.0135263 3.02956e-17)
(-0.1449 0.0142185 3.11592e-17)
(-0.143785 0.0152833 2.77515e-17)
(-0.143757 0.0162465 2.79651e-17)
(-0.143614 0.0157172 2.52529e-17)
(-0.141529 0.0151683 2.62325e-17)
(-0.140185 0.016205 2.37128e-17)
(-0.139159 0.0175165 2.27734e-17)
(-0.139581 0.0174966 2.00986e-17)
(-0.138289 0.0167685 2.0761e-17)
(-0.13801 0.0171823 2.14873e-17)
(-0.136891 0.0181054 2.28076e-17)
(-0.137368 0.0187666 2.03894e-17)
(-0.136697 0.0188229 2.3616e-17)
(-0.137243 0.0191788 2.08718e-17)
(-0.136682 0.0194569 2.38783e-17)
(-0.137253 0.0199159 1.99823e-17)
(-0.136885 0.0202062 1.69748e-17)
(-0.137533 0.020662 1.68955e-17)
(-0.137312 0.0209567 1.5773e-17)
(-0.137992 0.0212565 1.41201e-17)
(-0.137852 0.0214369 1.68471e-17)
(-0.138504 0.0217841 1.80894e-17)
(-0.138374 0.0220275 1.76003e-17)
(-0.139011 0.0223852 1.60955e-17)
(-0.138866 0.0226009 1.66922e-17)
(-0.139518 0.0229477 1.34718e-17)
(-0.139336 0.0231496 1.76158e-17)
(-0.139973 0.0234692 1.43409e-17)
(-0.139732 0.023636 1.3922e-17)
(-0.140328 0.0239482 1.3773e-17)
(-0.139965 0.0240932 1.3865e-17)
(-0.140483 0.0244012 1.40804e-17)
(-0.139956 0.0244899 1.4114e-17)
(-0.140347 0.0247052 1.39746e-17)
(-0.139693 0.0247148 1.23276e-17)
(-0.139986 0.0249692 1.38378e-17)
(-0.139134 0.0250998 1.26392e-17)
(-0.139152 0.0254378 1.44102e-17)
(-0.137953 0.0254216 1.31795e-17)
(-0.137767 0.0254541 1.36865e-17)
(-0.136456 0.0252508 1.47097e-17)
(-0.136101 0.025254 1.28392e-17)
(-0.134553 0.0250874 1.31595e-17)
(-0.13385 0.0251178 1.29423e-17)
(-0.131959 0.0248927 1.30117e-17)
(-0.130846 0.0247748 1.2355e-17)
(-0.128629 0.0243586 1.26659e-17)
(-0.127228 0.0240622 1.26207e-17)
(-0.124741 0.0236099 1.20036e-17)
(-0.122919 0.0233655 1.28972e-17)
(-0.119899 0.0229481 1.0682e-17)
(-0.117375 0.0226386 1.16243e-17)
(-0.113624 0.02201 1.07589e-17)
(-0.110401 0.0213964 1.16177e-17)
(-0.106043 0.020534 9.8395e-18)
(-0.102079 0.019708 1.18513e-17)
(-0.0969575 0.0187799 1.01925e-17)
(-0.091865 0.0176071 1.06744e-17)
(-0.0854585 0.0163108 1.03028e-17)
(-0.079093 0.0147506 9.7072e-18)
(-0.0709595 0.0127852 9.94457e-18)
(-0.0635083 0.0110141 9.9964e-18)
(-0.0535367 0.00860699 9.76971e-18)
(-0.04508 0.00677725 9.88325e-18)
(-0.0329864 0.00283952 9.92342e-18)
(-0.0222065 0.00198561 9.43573e-18)
(-0.0140381 -0.0083622 1.02811e-17)
(-0.00263747 -0.0158502 9.57304e-18)
(0.0398872 -0.0389439 9.64173e-18)
(0.0611452 -0.0864194 8.92737e-18)
(0.168527 0.0179925 1.09998e-17)
(0.260213 0.0195294 1.18886e-17)
(0.364471 0.0342553 1.37578e-17)
(0.46464 0.0377931 1.45807e-17)
(0.549067 0.0393725 1.62121e-17)
(0.610183 0.0355703 1.74937e-17)
(0.648233 0.0335975 1.92447e-17)
(0.678101 0.0319176 2.02508e-17)
(0.703376 0.0343873 2.13281e-17)
(0.745327 0.0406133 2.38474e-17)
(0.784882 0.0382977 2.41312e-17)
(0.805715 0.0384069 2.93496e-17)
(0.807874 0.0345445 3.51147e-17)
(0.806668 0.0358319 4.67357e-17)
(0.805774 0.0241067 3.85162e-17)
(0.804055 0.0317543 1.18773e-16)
(0.811107 0.0157897 3.71532e-17)
(0.811207 0.0264355 1.70186e-16)
(0.816433 0.0129126 1.20619e-17)
(0.820019 0.0231045 2.38881e-16)
(0.812908 0.016966 2.43647e-17)
(0.82242 0.0150425 6.61068e-17)
(0.805095 0.0208732 -5.49562e-17)
(0.824293 0.0176606 1.65896e-16)
(0.83036 0.0198462 -2.25091e-16)
(0.824202 0.0286606 -1.70404e-16)
(0.865803 -0.00177958 -1.95712e-16)
(0.809376 0.0234669 -6.30562e-16)
(0.839015 -0.00641573 2.5865e-16)
(0.791442 0.00181996 -8.72992e-19)
(0.807263 0.0112582 -6.93509e-17)
(0.795523 -0.0116734 -9.11308e-17)
(0.795525 -0.0116148 -9.06405e-17)
(0.807211 0.0112154 -2.74679e-17)
(0.791379 0.00190404 -5.67991e-18)
(0.839074 -0.00638415 1.69109e-16)
(0.809384 0.0234765 -5.21019e-16)
(0.865845 -0.00181892 -1.67054e-16)
(0.824021 0.0287575 -1.48019e-16)
(0.830483 0.0197842 -1.77403e-16)
(0.824462 0.0176647 2.22816e-16)
(0.805178 0.0209042 -1.37045e-17)
(0.822357 0.015074 8.81991e-17)
(0.812885 0.0170383 -2.99067e-17)
(0.819927 0.023151 1.78573e-16)
(0.816225 0.013029 4.7288e-19)
(0.811034 0.0264264 1.6804e-16)
(0.810956 0.0159827 1.06346e-17)
(0.80379 0.0317534 1.15828e-16)
(0.805878 0.0244411 3.89528e-17)
(0.806842 0.0356606 4.72837e-17)
(0.808977 0.0347325 3.43388e-17)
(0.809781 0.0385851 3.18341e-17)
(0.799196 0.0387037 2.63082e-17)
(0.773393 0.0410068 2.48725e-17)
(0.735363 0.0343597 2.27194e-17)
(0.710431 0.0299966 2.18489e-17)
(0.691115 0.0272161 2.08327e-17)
(0.675169 0.0216493 2.00692e-17)
(0.662963 0.0180882 1.97717e-17)
(0.652027 0.0107378 1.91209e-17)
(0.648633 -0.000680497 1.86557e-17)
(0.646879 -0.00569488 1.81954e-17)
(0.641374 -0.0241945 1.80846e-17)
(0.631998 0.000764429 1.7832e-17)
(0.620418 -0.0276593 1.79412e-17)
(0.609527 -0.0166391 1.77825e-17)
(0.600772 -0.0256032 1.78822e-17)
(0.591861 -0.0214554 1.77579e-17)
(0.58426 -0.0236209 1.78813e-17)
(0.576415 -0.0218872 1.77105e-17)
(0.570037 -0.021566 1.78479e-17)
(0.562556 -0.0198079 1.77342e-17)
(0.558683 -0.0190269 1.78116e-17)
(0.550534 -0.0176675 1.76888e-17)
(0.547731 -0.0166701 1.78176e-17)
(0.53946 -0.0155344 1.76625e-17)
(0.537191 -0.0146377 1.77752e-17)
(0.528574 -0.0129989 1.76769e-17)
(0.526735 -0.0117176 1.77472e-17)
(0.519002 -0.0102736 1.76889e-17)
(0.51688 -0.00928131 1.77223e-17)
(0.509309 -0.00734488 1.76711e-17)
(0.5081 -0.00644484 1.76925e-17)
(0.500073 -0.00513442 1.76732e-17)
(0.49729 -0.00346629 1.76601e-17)
(0.491743 -0.000206125 1.76407e-17)
(0.492073 0.00109377 1.76396e-17)
(0.48632 0.00218359 1.76228e-17)
(0.484651 0.00270249 1.76004e-17)
(0.477961 0.00368069 1.7582e-17)
(0.474654 0.00610228 1.75492e-17)
(0.470265 0.00824313 1.75526e-17)
(0.468021 0.00927678 1.7487e-17)
(0.463003 0.0115987 1.75157e-17)
(0.461948 0.0139075 1.74134e-17)
(0.459044 0.0155673 1.74459e-17)
(0.45706 0.0173 1.73722e-17)
(0.455072 0.0195948 1.7411e-17)
(0.454604 0.0211748 1.72426e-17)
(0.452682 0.0227611 1.73543e-17)
(0.451583 0.0245162 1.72507e-17)
(0.4506 0.0261117 1.70883e-17)
(0.44956 0.027912 1.69475e-17)
(0.449351 0.0299071 1.70559e-17)
(0.449449 0.0316417 1.68329e-17)
(0.449353 0.0331998 1.71088e-17)
(0.449451 0.035014 1.72237e-17)
(0.450255 0.0366468 1.69051e-17)
(0.450599 0.0384714 1.69631e-17)
(0.452173 0.0402854 1.75205e-17)
(0.453111 0.0417503 1.72602e-17)
(0.454263 0.0433602 1.76433e-17)
(0.455303 0.0450576 1.77673e-17)
(0.456943 0.046948 1.80379e-17)
(0.459209 0.0489199 1.75888e-17)
(0.461935 0.05054 1.82166e-17)
(0.464288 0.0522489 1.83294e-17)
(0.467381 0.0539494 1.8752e-17)
(0.470084 0.0555145 1.94358e-17)
(0.473025 0.0572646 1.98038e-17)
(0.476208 0.059265 2.05059e-17)
(0.480761 0.0615079 2.12144e-17)
(0.485961 0.0633587 2.01648e-17)
(0.490946 0.0651613 2.30048e-17)
(0.496667 0.0670155 2.30926e-17)
(0.502392 0.0688469 2.54553e-17)
(0.509194 0.0707194 2.53069e-17)
(0.515862 0.0722768 2.64614e-17)
(0.522925 0.0739703 2.76266e-17)
(0.530284 0.075573 2.82168e-17)
(0.538481 0.0773147 2.72008e-17)
(0.547075 0.0786685 3.022e-17)
(0.555594 0.0800142 3.06309e-17)
(0.564314 0.082012 2.76601e-17)
(0.580667 0.085773 2.93668e-17)
(0.598474 0.0854714 2.96754e-17)
(0.60442 0.0821045 3.02213e-17)
(0.608391 0.0826157 3.28038e-17)
(0.621312 0.085487 3.07457e-17)
(0.636092 0.0860022 3.32265e-17)
(0.651294 0.0861551 2.98985e-17)
(0.666331 0.085513 3.42421e-17)
(0.681621 0.0846515 2.94613e-17)
(0.696468 0.083279 3.37814e-17)
(0.714419 0.0826166 2.98323e-17)
(0.730946 0.079634 3.37559e-17)
(0.747629 0.0766111 3.05009e-17)
(0.763189 0.0725443 3.30269e-17)
(0.781095 0.0691193 3.12739e-17)
(0.796042 0.0630431 3.2631e-17)
(0.81104 0.0574434 3.16093e-17)
(0.823011 0.0500536 3.35732e-17)
(0.836874 0.0439487 3.14869e-17)
(0.844171 0.0343628 3.36302e-17)
(0.853878 0.0274716 3.2559e-17)
(0.855188 0.0154722 3.42624e-17)
(0.854165 0.00926895 3.38332e-17)
(0.860928 -0.000605205 3.55511e-17)
(0.849049 -0.00787854 3.53551e-17)
(0.853335 -0.0132788 3.73252e-17)
(0.849951 -0.0224047 3.74655e-17)
(0.843369 -0.0271478 3.94147e-17)
(0.841443 -0.0342893 3.94555e-17)
(0.833267 -0.0382314 4.12863e-17)
(0.8312 -0.0434608 4.10611e-17)
(0.827158 -0.048032 4.24102e-17)
(0.821893 -0.0535412 4.19019e-17)
(0.817068 -0.0573677 4.28808e-17)
(0.812612 -0.0612937 4.21702e-17)
(0.808665 -0.064988 4.35803e-17)
(0.806036 -0.0685351 4.27756e-17)
(0.802586 -0.0723708 4.43547e-17)
(0.800693 -0.0768412 4.48184e-17)
(0.795769 -0.0804239 4.67997e-17)
(0.792539 -0.0833821 4.71927e-17)
(0.789222 -0.0871229 4.89955e-17)
(0.787287 -0.0911954 4.93778e-17)
(0.783566 -0.0947746 5.14488e-17)
(0.78114 -0.098975 5.13636e-17)
(0.775988 -0.103342 5.31929e-17)
(0.771789 -0.107268 5.2688e-17)
(0.767023 -0.111477 5.48462e-17)
(0.762581 -0.115345 5.39934e-17)
(0.756669 -0.119888 5.49605e-17)
(0.750697 -0.124228 5.40784e-17)
(0.744229 -0.128349 5.45862e-17)
(0.738245 -0.13229 5.46759e-17)
(0.730591 -0.136478 5.49347e-17)
(0.72212 -0.142202 5.46734e-17)
(0.711141 -0.14717 5.44855e-17)
(0.702066 -0.149164 5.34283e-17)
(0.694439 -0.150642 5.42658e-17)
(0.685785 -0.155399 5.48224e-17)
(0.671923 -0.163123 5.45367e-17)
(0.65811 -0.168849 5.37405e-17)
(0.645548 -0.171524 5.42834e-17)
(0.631537 -0.172434 5.39931e-17)
(0.613475 -0.173835 5.46466e-17)
(0.592974 -0.177613 5.42753e-17)
(0.570265 -0.183381 5.61189e-17)
(0.54783 -0.190011 5.29251e-17)
(0.526735 -0.191668 5.56815e-17)
(0.499719 -0.186379 5.36467e-17)
(0.465187 -0.181976 5.64566e-17)
(0.42962 -0.183907 5.4746e-17)
(0.396109 -0.182608 5.57122e-17)
(0.353157 -0.172883 5.5085e-17)
(0.308019 -0.163346 5.54609e-17)
(0.259048 -0.145832 5.44321e-17)
(0.207872 -0.112688 5.4464e-17)
(0.143277 -0.0627625 5.23042e-17)
(0.0983923 0.0063997 5.28853e-17)
(0.0430256 0.110644 3.15877e-17)
(0.0497879 0.259097 4.99688e-17)
(0.0471866 0.413628 6.04432e-17)
(0.150161 0.513114 6.8192e-17)
(0.291408 0.679484 6.97858e-17)
(0.488904 0.729372 7.19265e-17)
(0.666165 0.77278 7.12316e-17)
(0.807465 0.749216 7.01428e-17)
(0.857143 0.712122 7.5806e-17)
(0.957034 0.695894 8.01938e-17)
(1.05054 0.675355 7.01372e-17)
(1.13597 0.659331 6.70126e-17)
(1.19514 0.618018 7.4841e-17)
(1.25038 0.569033 7.15433e-17)
(1.28667 0.53706 6.89646e-17)
(1.30586 0.517838 7.38827e-17)
(1.32495 0.494351 7.20097e-17)
(1.33929 0.458216 6.72096e-17)
(1.35002 0.431196 6.72956e-17)
(1.35111 0.414455 6.8413e-17)
(1.35313 0.400555 6.87122e-17)
(1.35293 0.377392 6.83686e-17)
(1.35307 0.360225 6.59069e-17)
(1.34629 0.34268 6.51571e-17)
(1.34413 0.329647 6.61443e-17)
(1.33586 0.316079 6.57961e-17)
(1.33395 0.303231 6.53161e-17)
(1.32404 0.289471 6.53995e-17)
(1.32108 0.278743 6.5152e-17)
(1.31339 0.266138 6.49123e-17)
(1.31089 0.255747 6.56385e-17)
(1.30283 0.243904 6.49525e-17)
(1.30028 0.232722 6.50169e-17)
(1.29278 0.222323 6.50067e-17)
(1.29072 0.213848 6.55803e-17)
(1.28075 0.204101 6.5342e-17)
(1.27746 0.195606 6.58275e-17)
(1.26695 0.185223 6.56825e-17)
(1.2655 0.178966 6.6162e-17)
(1.26392 0.166932 6.65487e-17)
(1.26122 0.157508 6.74542e-17)
(1.24999 0.150282 6.79459e-17)
(1.24896 0.144389 6.88902e-17)
(1.23917 0.137277 6.91296e-17)
(1.2354 0.132272 6.92966e-17)
(1.22423 0.125773 7.02581e-17)
(1.22201 0.120434 7.05921e-17)
(1.20939 0.114636 7.0974e-17)
(1.20692 0.109987 7.12924e-17)
(1.1986 0.104436 7.15016e-17)
(1.20314 0.096345 7.15208e-17)
(1.19486 0.0879967 7.15687e-17)
(1.20092 0.0824171 7.19683e-17)
(1.19138 0.0745564 7.07293e-17)
(1.19305 0.0682916 7.1026e-17)
(1.18887 0.0649327 6.9457e-17)
(1.18121 0.0592006 6.89426e-17)
(1.18121 0.0543755 6.75336e-17)
(1.16964 0.0483956 6.66219e-17)
(1.1765 0.0448718 6.54634e-17)
(1.16447 0.0371933 6.49247e-17)
(1.17157 0.0323005 6.45734e-17)
(1.16385 0.0260868 6.46211e-17)
(1.1712 0.0230148 6.41113e-17)
(1.15749 0.0158366 6.3694e-17)
(1.17285 0.0130688 6.38651e-17)
(1.15517 0.00184578 6.25735e-17)
(1.16744 0.00259732 6.36904e-17)
(1.08596 0.00349658 6.14213e-17)
(0.890189 0.0211273 6.13214e-17)
(0.504733 0.0430443 5.67875e-17)
(0.0849371 0.0226786 4.96865e-17)
(-0.0295128 0.00903378 4.61295e-17)
(-0.0834702 0.00600699 4.46045e-17)
(-0.0909082 0.00444016 4.49408e-17)
(-0.103903 0.005046 4.43664e-17)
(-0.100382 0.00512292 4.40228e-17)
(-0.107093 0.00637675 4.26469e-17)
(-0.103206 0.00632738 4.31471e-17)
(-0.105858 0.00724661 4.10265e-17)
(-0.10221 0.00734669 3.9926e-17)
(-0.103704 0.00815411 3.7048e-17)
(-0.10208 0.00853571 3.68803e-17)
(-0.103483 0.00923114 3.58515e-17)
(-0.103255 0.00962354 3.38721e-17)
(-0.103965 0.0102167 3.18835e-17)
(-0.104085 0.0111474 3.1483e-17)
(-0.105603 0.0121129 2.81912e-17)
(-0.106626 0.0116322 2.79859e-17)
(-0.105541 0.011193 2.89008e-17)
(-0.104947 0.0121173 2.72365e-17)
(-0.105232 0.0133733 2.62365e-17)
(-0.10676 0.0134619 2.61574e-17)
(-0.106483 0.0129073 2.49537e-17)
(-0.106841 0.0133255 2.1598e-17)
(-0.106742 0.0142201 2.49257e-17)
(-0.108108 0.0149063 2.51255e-17)
(-0.108462 0.0150594 2.47936e-17)
(-0.109729 0.0154602 2.18046e-17)
(-0.110087 0.0157926 2.11828e-17)
(-0.111352 0.016293 2.11706e-17)
(-0.111864 0.0166484 2.02138e-17)
(-0.113169 0.017152 1.86831e-17)
(-0.113783 0.0175176 1.89051e-17)
(-0.115086 0.01789 1.94337e-17)
(-0.115697 0.0181526 1.70688e-17)
(-0.116921 0.0185563 1.83625e-17)
(-0.11748 0.0188668 1.73449e-17)
(-0.118667 0.0192761 1.78223e-17)
(-0.119183 0.0195627 1.67109e-17)
(-0.120335 0.0199507 1.68614e-17)
(-0.120783 0.020219 1.75939e-17)
(-0.121877 0.0205749 1.53771e-17)
(-0.122219 0.0208038 1.54053e-17)
(-0.123238 0.021143 1.44575e-17)
(-0.123441 0.0213482 1.41455e-17)
(-0.124331 0.0216679 1.41631e-17)
(-0.124354 0.021813 1.49809e-17)
(-0.125086 0.022046 1.46167e-17)
(-0.124934 0.0221106 1.5305e-17)
(-0.12549 0.0223497 1.39619e-17)
(-0.125109 0.0224856 1.47103e-17)
(-0.125382 0.0227696 1.40818e-17)
(-0.124716 0.0227794 1.43597e-17)
(-0.124759 0.022793 1.43823e-17)
(-0.123923 0.0226047 1.32293e-17)
(-0.123683 0.022541 1.30451e-17)
(-0.12259 0.0223394 1.33214e-17)
(-0.121966 0.0222499 1.33594e-17)
(-0.120545 0.0219654 1.27336e-17)
(-0.119536 0.0217215 1.28885e-17)
(-0.117799 0.0212457 1.20551e-17)
(-0.116415 0.0207878 1.20736e-17)
(-0.114348 0.0201948 1.14398e-17)
(-0.112471 0.0196701 1.14128e-17)
(-0.109913 0.0190008 1.1122e-17)
(-0.107388 0.0183083 1.14191e-17)
(-0.104228 0.0173543 1.04685e-17)
(-0.100996 0.0162615 1.10227e-17)
(-0.0971961 0.014893 1.04166e-17)
(-0.0930988 0.0134438 1.07411e-17)
(-0.0885141 0.0117004 1.01354e-17)
(-0.0831948 0.00999429 1.02423e-17)
(-0.0776187 0.00797858 1.03052e-17)
(-0.071469 0.00571971 1.00566e-17)
(-0.0644225 0.00339221 9.85866e-18)
(-0.0570493 0.000394677 9.62782e-18)
(-0.0483019 -0.00243889 9.91691e-18)
(-0.0387317 -0.00621766 9.77009e-18)
(-0.0284516 -0.00998719 9.68857e-18)
(-0.0169587 -0.0124355 9.4311e-18)
(-0.00518552 -0.0159568 9.42061e-18)
(-0.000527957 -0.0375248 9.3431e-18)
(0.0141401 -0.0466255 9.26629e-18)
(0.0084554 -0.0627222 9.12782e-18)
(0.0322805 -0.0448775 9.69297e-18)
(0.0882195 -0.0289763 1.041e-17)
(0.163115 -0.0022639 1.14313e-17)
(0.259046 0.0161384 1.22254e-17)
(0.36169 0.0304985 1.38494e-17)
(0.464707 0.0363479 1.53829e-17)
(0.547485 0.0378986 1.71858e-17)
(0.615551 0.0359559 1.85803e-17)
(0.663567 0.0361527 2.01405e-17)
(0.717183 0.0407202 2.39679e-17)
(0.769602 0.0376477 2.41196e-17)
(0.800491 0.038075 2.99711e-17)
(0.80668 0.0345747 3.48579e-17)
(0.806457 0.0356574 4.60356e-17)
(0.805699 0.0243925 3.26004e-17)
(0.804232 0.0313964 8.30794e-17)
(0.811175 0.0158427 6.01602e-17)
(0.811346 0.0264276 1.30599e-16)
(0.816626 0.0128141 1.19392e-16)
(0.820138 0.0230606 2.32715e-17)
(0.812755 0.0169658 -1.21898e-17)
(0.822376 0.0150152 1.31271e-17)
(0.804863 0.0209093 -1.79531e-16)
(0.824138 0.0174729 -1.02558e-16)
(0.829087 0.0204157 6.21092e-17)
(0.824327 0.0287994 2.58793e-16)
(0.865151 -0.00194455 -2.82928e-16)
(0.809406 0.0232689 -1.3665e-16)
(0.839161 -0.00660905 -2.59807e-16)
(0.791531 0.00171749 -4.23186e-17)
(0.807145 0.0115449 -8.40919e-18)
(0.795565 -0.0116057 -9.06835e-17)
(0.795496 -0.0115479 -8.77957e-17)
(0.80701 0.0112116 -1.21324e-17)
(0.791408 0.00178921 -3.41256e-17)
(0.839095 -0.00664881 -1.72635e-16)
(0.80933 0.0230602 -5.10167e-17)
(0.865585 -0.0020395 -2.67414e-16)
(0.824111 0.028958 2.09421e-16)
(0.829413 0.0202367 1.04774e-16)
(0.824342 0.0174755 -1.24695e-16)
(0.805112 0.020969 -2.20608e-16)
(0.822318 0.0150632 2.35502e-17)
(0.812745 0.0171214 -2.73188e-17)
(0.819944 0.0231632 6.60744e-17)
(0.816214 0.013084 1.10853e-16)
(0.810959 0.0264859 1.16667e-16)
(0.81093 0.0161172 7.63522e-17)
(0.803707 0.0315324 9.01194e-17)
(0.805917 0.0245648 3.40069e-17)
(0.806824 0.0354346 4.50955e-17)
(0.809406 0.0347352 3.74748e-17)
(0.810538 0.0380357 3.19659e-17)
(0.805803 0.0371575 2.86102e-17)
(0.789218 0.0390952 2.53416e-17)
(0.754853 0.0323201 2.40555e-17)
(0.731421 0.0271819 2.29669e-17)
(0.713729 0.0244282 2.16177e-17)
(0.697042 0.0200908 2.08996e-17)
(0.691645 0.0155418 2.06872e-17)
(0.68721 0.0105406 2.03879e-17)
(0.67563 0.00697959 1.99788e-17)
(0.667372 0.00201042 1.96272e-17)
(0.659558 -0.00483195 1.96376e-17)
(0.660378 -0.0111244 1.92515e-17)
(0.648567 -0.0166411 1.94627e-17)
(0.639539 -0.0169315 1.92044e-17)
(0.636492 -0.0207903 1.93471e-17)
(0.6237 -0.018744 1.91881e-17)
(0.622252 -0.0213674 1.9271e-17)
(0.610189 -0.0186237 1.91229e-17)
(0.608357 -0.0202298 1.92094e-17)
(0.598171 -0.0171811 1.90894e-17)
(0.596451 -0.0182545 1.91642e-17)
(0.587472 -0.0155806 1.9079e-17)
(0.585223 -0.0159869 1.91139e-17)
(0.577196 -0.0137632 1.90606e-17)
(0.574671 -0.0136667 1.90842e-17)
(0.567013 -0.0115407 1.90355e-17)
(0.56426 -0.0108009 1.90305e-17)
(0.557746 -0.00900675 1.90008e-17)
(0.554574 -0.00821798 1.89872e-17)
(0.548333 -0.00622192 1.89554e-17)
(0.545984 -0.00541086 1.8941e-17)
(0.539477 -0.003691 1.88917e-17)
(0.535811 -0.00205622 1.88743e-17)
(0.531298 0.000645644 1.88333e-17)
(0.530476 0.00179766 1.88277e-17)
(0.52582 0.00332238 1.87765e-17)
(0.523247 0.00428151 1.87493e-17)
(0.517818 0.00522371 1.87054e-17)
(0.514128 0.00743913 1.86581e-17)
(0.510362 0.00970213 1.86131e-17)
(0.507728 0.0109896 1.86017e-17)
(0.503539 0.0132743 1.85116e-17)
(0.502055 0.0155382 1.84714e-17)
(0.499684 0.0174495 1.84025e-17)
(0.497595 0.0192797 1.83491e-17)
(0.496001 0.021685 1.8366e-17)
(0.495366 0.0233611 1.8239e-17)
(0.493874 0.0251501 1.81575e-17)
(0.49277 0.0268893 1.81712e-17)
(0.492181 0.0285987 1.81105e-17)
(0.49131 0.0305606 1.80916e-17)
(0.491367 0.0327492 1.80495e-17)
(0.49157 0.0346517 1.81104e-17)
(0.491808 0.0363554 1.84417e-17)
(0.492116 0.0383116 1.83983e-17)
(0.493238 0.0401036 1.85386e-17)
(0.493873 0.0420647 1.87562e-17)
(0.495718 0.0440502 1.87135e-17)
(0.496979 0.0456889 1.89758e-17)
(0.498534 0.0474975 1.92479e-17)
(0.499974 0.0493671 1.95303e-17)
(0.502048 0.0514044 1.99292e-17)
(0.504692 0.0535364 1.97859e-17)
(0.507844 0.0553074 2.04245e-17)
(0.510688 0.0572146 2.07026e-17)
(0.514265 0.0590799 2.19734e-17)
(0.517532 0.060852 2.2274e-17)
(0.521094 0.0628242 2.27017e-17)
(0.524914 0.0650133 2.36005e-17)
(0.530064 0.067439 2.39376e-17)
(0.535858 0.0694796 2.61971e-17)
(0.541548 0.0714959 2.66862e-17)
(0.547956 0.0735181 2.72391e-17)
(0.554443 0.0755156 2.7767e-17)
(0.561969 0.0775542 2.90161e-17)
(0.569443 0.0792996 2.89555e-17)
(0.577358 0.081172 3.13495e-17)
(0.585583 0.082946 3.01616e-17)
(0.594681 0.0848548 3.0655e-17)
(0.604191 0.0863514 3.14569e-17)
(0.613731 0.0878739 3.19132e-17)
(0.623523 0.0898833 3.39011e-17)
(0.64034 0.0935456 3.44581e-17)
(0.658374 0.0932351 3.44628e-17)
(0.665683 0.0901324 3.55906e-17)
(0.671305 0.0906001 3.50445e-17)
(0.685058 0.0935231 3.56981e-17)
(0.700535 0.093897 3.42251e-17)
(0.716511 0.0940051 3.36077e-17)
(0.732206 0.0931672 3.55694e-17)
(0.748166 0.09216 3.31672e-17)
(0.763593 0.0905183 3.50892e-17)
(0.781844 0.0894624 3.36347e-17)
(0.798423 0.0861609 3.42797e-17)
(0.815276 0.0826455 3.39522e-17)
(0.830739 0.0779974 3.52646e-17)
(0.84834 0.0742326 3.37929e-17)
(0.86271 0.0672977 3.62792e-17)
(0.877188 0.0614032 3.41772e-17)
(0.888395 0.0529321 3.63413e-17)
(0.901416 0.0468949 3.52178e-17)
(0.90776 0.0356218 3.70709e-17)
(0.916529 0.0284444 3.64178e-17)
(0.916912 0.0160549 3.81586e-17)
(0.91576 0.00955422 3.79622e-17)
(0.921035 -0.000776489 3.98336e-17)
(0.909505 -0.00919351 3.9914e-17)
(0.912598 -0.0143932 4.21066e-17)
(0.908473 -0.0250212 4.26206e-17)
(0.901649 -0.0299878 4.4883e-17)
(0.898728 -0.0375932 4.46839e-17)
(0.890384 -0.0419739 4.64509e-17)
(0.887375 -0.0477632 4.6213e-17)
(0.882539 -0.052625 4.69907e-17)
(0.876621 -0.0579902 4.63609e-17)
(0.871183 -0.0616853 4.72873e-17)
(0.865946 -0.0659347 4.68567e-17)
(0.861182 -0.0692802 4.80395e-17)
(0.857553 -0.0733482 4.82891e-17)
(0.853062 -0.0772018 5.00315e-17)
(0.850111 -0.0820609 5.09123e-17)
(0.844253 -0.0855734 5.39847e-17)
(0.839827 -0.0893008 5.23606e-17)
(0.835177 -0.092762 5.60961e-17)
(0.83224 -0.0963391 5.48984e-17)