/*--------------------------------*- C++ -*----------------------------------*\
| =========                 |                                                 |
| \\      /  F ield         | OpenFOAM: The Open Source CFD Toolbox           |
|  \\    /   O peration     | Version:  v2006                                 |
|   \\  /    A nd           | Website:  www.openfoam.com                      |
|    \\/     M anipulation  |                                                 |
\*---------------------------------------------------------------------------*/
FoamFile
{
    version     2.0;
    format      ascii;
    class       volScalarField;
    location    "100";
    object      alphat;
}
// * * * * * * * * * * * * * * * * * * * * * * * * * * * * * * * * * * * * * //

dimensions      [1 -1 -1 0 0 0 0];


internalField   nonuniform List<scalar> 
93840
(
2.80415e-08
2.92276e-08
2.79111e-08
2.87713e-08
2.80511e-08
2.90411e-08
2.83965e-08
2.86022e-08
2.88933e-08
2.84052e-08
2.86217e-08
2.92844e-08
2.85292e-08
2.89831e-08
2.717e-08
2.54832e-08
3.12715e-08
3.62951e-08
2.8856e-08
1.22239e-06
7.11386e-06
2.26987e-05
4.21614e-05
4.57645e-05
3.84855e-05
3.38032e-05
2.68309e-05
2.17781e-05
1.90033e-05
1.65027e-05
1.48884e-05
1.34604e-05
1.35207e-05
1.30619e-05
1.31039e-05
1.30111e-05
1.28623e-05
1.28719e-05
1.26923e-05
1.27151e-05
1.25578e-05
1.25754e-05
1.24357e-05
1.24363e-05
1.23115e-05
1.22937e-05
1.21839e-05
1.21634e-05
1.20667e-05
1.20352e-05
1.19513e-05
1.19178e-05
1.18318e-05
1.17853e-05
1.17431e-05
1.17465e-05
1.16977e-05
1.16595e-05
1.15748e-05
1.15395e-05
1.15171e-05
1.14598e-05
1.14004e-05
1.13921e-05
1.13672e-05
1.13337e-05
1.13223e-05
1.13211e-05
1.13105e-05
1.13043e-05
1.13116e-05
1.12983e-05
1.12984e-05
1.12885e-05
1.12767e-05
1.12712e-05
1.12911e-05
1.1314e-05
1.13567e-05
1.13679e-05
1.13586e-05
1.13391e-05
1.13528e-05
1.14134e-05
1.14888e-05
1.15178e-05
1.15161e-05
1.15197e-05
1.15868e-05
1.16866e-05
1.17524e-05
1.17717e-05
1.18317e-05
1.19722e-05
1.2081e-05
1.2127e-05
1.22012e-05
1.23541e-05
1.24721e-05
1.25332e-05
1.26541e-05
1.282e-05
1.29114e-05
1.31316e-05
1.34156e-05
1.34546e-05
1.34578e-05
1.36681e-05
1.38444e-05
1.40052e-05
1.42068e-05
1.43733e-05
1.4539e-05
1.47662e-05
1.49405e-05
1.51423e-05
1.53143e-05
1.55208e-05
1.56873e-05
1.58733e-05
1.6017e-05
1.61936e-05
1.62964e-05
1.64359e-05
1.65063e-05
1.65776e-05
1.66804e-05
1.66455e-05
1.67677e-05
1.67778e-05
1.67983e-05
1.68262e-05
1.6844e-05
1.68749e-05
1.68919e-05
1.69169e-05
1.69211e-05
1.6949e-05
1.6974e-05
1.70143e-05
1.70441e-05
1.70709e-05
1.70778e-05
1.71126e-05
1.7136e-05
1.71626e-05
1.7192e-05
1.72068e-05
1.72131e-05
1.72128e-05
1.7218e-05
1.72027e-05
1.71913e-05
1.71548e-05
1.71201e-05
1.7066e-05
1.70037e-05
1.69069e-05
1.68242e-05
1.6728e-05
1.6646e-05
1.65165e-05
1.63538e-05
1.61666e-05
1.59734e-05
1.57017e-05
1.53047e-05
1.46185e-05
1.34342e-05
1.17892e-05
1.11092e-05
1.21325e-05
1.00609e-05
2.91963e-06
5.33155e-08
5.07812e-06
4.52335e-06
9.64466e-09
1.92134e-08
6.06027e-07
4.69867e-07
5.49491e-08
3.22198e-07
1.04426e-07
9.33442e-08
1.93263e-07
9.36427e-08
3.51435e-10
5.63653e-06
9.44285e-06
1.61725e-06
3.99717e-06
1.31551e-05
1.51075e-05
1.32067e-05
1.43891e-05
1.66379e-05
1.79586e-05
1.84764e-05
1.8443e-05
1.85225e-05
1.84725e-05
1.83381e-05
1.82419e-05
1.8152e-05
1.80729e-05
1.79463e-05
1.78288e-05
1.77076e-05
1.75945e-05
1.74726e-05
1.73573e-05
1.72348e-05
1.71118e-05
1.70064e-05
1.69007e-05
1.67657e-05
1.66393e-05
1.65067e-05
1.63891e-05
1.62807e-05
1.61342e-05
1.60278e-05
1.59344e-05
1.58085e-05
1.57062e-05
1.55904e-05
1.54994e-05
1.54001e-05
1.53019e-05
1.51855e-05
1.5096e-05
1.49983e-05
1.49304e-05
1.48012e-05
1.47444e-05
1.46564e-05
1.45633e-05
1.44788e-05
1.43946e-05
1.43188e-05
1.42426e-05
1.41827e-05
1.4087e-05
1.40342e-05
1.39653e-05
1.39014e-05
1.38336e-05
1.37868e-05
1.36911e-05
1.36464e-05
1.35501e-05
1.35859e-05
1.32611e-05
1.30238e-05
1.20443e-05
9.98593e-06
8.87722e-06
9.16857e-06
9.6094e-06
9.93269e-06
1.00987e-05
1.02526e-05
1.03412e-05
1.041e-05
1.04113e-05
1.04158e-05
1.03313e-05
1.01425e-05
9.95666e-06
9.96275e-06
9.93892e-06
9.74843e-06
9.49262e-06
9.40222e-06
9.34687e-06
9.20551e-06
8.99281e-06
8.81387e-06
8.63592e-06
8.44764e-06
8.26102e-06
8.05858e-06
7.85302e-06
7.64725e-06
7.45165e-06
7.25664e-06
7.06987e-06
6.88287e-06
6.69597e-06
6.50756e-06
6.32289e-06
6.1384e-06
5.95896e-06
5.77897e-06
5.60046e-06
5.42708e-06
5.25414e-06
5.08819e-06
4.92657e-06
4.7787e-06
4.6261e-06
4.484e-06
4.32089e-06
4.17765e-06
4.01013e-06
3.88268e-06
3.71025e-06
3.59197e-06
3.41031e-06
3.299e-06
3.10661e-06
3.01342e-06
2.82816e-06
2.7557e-06
2.58779e-06
2.52662e-06
2.39406e-06
2.34571e-06
2.28067e-06
2.24088e-06
2.23393e-06
2.18862e-06
2.20899e-06
2.16052e-06
2.19735e-06
2.15311e-06
2.21577e-06
2.17149e-06
2.26998e-06
2.24489e-06
2.43244e-06
2.52249e-06
2.7385e-06
3.68723e-06
3.43447e-06
8.69487e-06
1.47156e-05
1.88015e-05
2.28727e-05
2.47183e-05
2.66871e-05
3.05697e-05
3.54125e-05
4.53356e-05
4.50981e-05
2.64649e-05
8.93153e-06
2.01342e-06
9.78582e-08
2.25253e-08
4.33835e-08
3.85316e-08
2.92632e-08
2.8942e-08
2.86458e-08
2.92292e-08
2.84884e-08
2.84435e-08
2.90166e-08
2.85663e-08
2.8358e-08
2.90323e-08
2.80281e-08
2.87316e-08
2.78081e-08
2.9149e-08
2.79348e-08
2.788e-08
2.91676e-08
2.77801e-08
2.87212e-08
2.79332e-08
2.90866e-08
2.83408e-08
2.8611e-08
2.90942e-08
2.83862e-08
2.84997e-08
2.91384e-08
2.86249e-08
2.91142e-08
2.90247e-08
2.56844e-08
1.86333e-08
2.38404e-08
6.20479e-08
4.89231e-07
4.74491e-06
1.80291e-05
3.75943e-05
4.51201e-05
4.14242e-05
3.95718e-05
3.44776e-05
2.90649e-05
2.51715e-05
2.13492e-05
1.92003e-05
1.7429e-05
1.68873e-05
1.65475e-05
1.73468e-05
1.63449e-05
1.75245e-05
1.63525e-05
1.75773e-05
1.64275e-05
1.75674e-05
1.65304e-05
1.75582e-05
1.6651e-05
1.75527e-05
1.67806e-05
1.7546e-05
1.68963e-05
1.75527e-05
1.70314e-05
1.75775e-05
1.71598e-05
1.76483e-05
1.73072e-05
1.76822e-05
1.74444e-05
1.78584e-05
1.77057e-05
1.8033e-05
1.78809e-05
1.81574e-05
1.80573e-05
1.82358e-05
1.81176e-05
1.82998e-05
1.82347e-05
1.8385e-05
1.83895e-05
1.85864e-05
1.86239e-05
1.87771e-05
1.87722e-05
1.87952e-05
1.87085e-05
1.86923e-05
1.866e-05
1.87802e-05
1.89117e-05
1.90429e-05
1.90165e-05
1.88704e-05
1.86652e-05
1.86486e-05
1.88339e-05
1.90764e-05
1.90298e-05
1.87183e-05
1.85169e-05
1.87248e-05
1.90737e-05
1.90085e-05
1.86124e-05
1.85264e-05
1.89096e-05
1.90353e-05
1.86436e-05
1.84914e-05
1.88467e-05
1.89102e-05
1.84834e-05
1.84711e-05
1.88078e-05
1.85377e-05
1.82659e-05
1.8589e-05
1.85395e-05
1.82404e-05
1.84134e-05
1.82743e-05
1.80046e-05
1.8095e-05
1.79169e-05
1.77155e-05
1.77169e-05
1.7467e-05
1.73918e-05
1.72375e-05
1.70813e-05
1.69249e-05
1.68117e-05
1.66187e-05
1.65192e-05
1.63354e-05
1.6229e-05
1.60971e-05
1.6072e-05
1.59065e-05
1.5877e-05
1.57735e-05
1.56675e-05
1.56258e-05
1.55168e-05
1.54779e-05
1.53513e-05
1.52616e-05
1.5178e-05
1.50916e-05
1.49944e-05
1.4896e-05
1.4792e-05
1.46637e-05
1.45544e-05
1.44407e-05
1.43329e-05
1.41916e-05
1.40522e-05
1.38936e-05
1.37251e-05
1.35502e-05
1.33794e-05
1.31777e-05
1.29583e-05
1.2717e-05
1.24371e-05
1.21049e-05
1.16998e-05
1.12209e-05
1.06951e-05
1.01971e-05
9.71484e-06
9.12653e-06
8.26373e-06
7.15445e-06
6.17515e-06
5.68443e-06
5.40249e-06
4.53192e-06
2.84376e-06
8.66078e-07
1.45187e-07
8.59552e-07
1.52706e-06
6.01305e-07
3.76977e-07
6.21729e-13
2.30206e-09
3.03447e-09
5.45237e-08
1.15721e-07
3.4877e-08
1.40536e-09
1.35142e-07
9.57253e-09
8.53578e-08
1.10058e-07
7.45044e-08
7.18687e-08
1.064e-08
1.20875e-07
3.7353e-08
1.04834e-07
4.27108e-07
1.50544e-06
2.03462e-06
1.63007e-06
1.21033e-06
2.39291e-06
4.48373e-06
6.23886e-06
7.23643e-06
8.01113e-06
8.91842e-06
9.88203e-06
1.07774e-05
1.14758e-05
1.20781e-05
1.25572e-05
1.29541e-05
1.32697e-05
1.3538e-05
1.37121e-05
1.38828e-05
1.40174e-05
1.4151e-05
1.42524e-05
1.43639e-05
1.44205e-05
1.45042e-05
1.4553e-05
1.45855e-05
1.46316e-05
1.45872e-05
1.46411e-05
1.47303e-05
1.47912e-05
1.48731e-05
1.49278e-05
1.50025e-05
1.50726e-05
1.51472e-05
1.51305e-05
1.50641e-05
1.50739e-05
1.50556e-05
1.50063e-05
1.51192e-05
1.50747e-05
1.5201e-05
1.51342e-05
1.52269e-05
1.52439e-05
1.52424e-05
1.52954e-05
1.52331e-05
1.52398e-05
1.53141e-05
1.52435e-05
1.52092e-05
1.52815e-05
1.53496e-05
1.50306e-05
1.51977e-05
1.53913e-05
1.45346e-05
1.48303e-05
1.52685e-05
1.58212e-05
1.97243e-05
2.30851e-05
2.39011e-05
2.36332e-05
2.30702e-05
2.2706e-05
2.22659e-05
2.19354e-05
2.15147e-05
2.1174e-05
2.06469e-05
2.02981e-05
2.00272e-05
1.98026e-05
1.95033e-05
1.91926e-05
1.89691e-05
1.88949e-05
1.87341e-05
1.84853e-05
1.82741e-05
1.81656e-05
1.79768e-05
1.77738e-05
1.76153e-05
1.74375e-05
1.72318e-05
1.70986e-05
1.70021e-05
1.68882e-05
1.67893e-05
1.67097e-05
1.66333e-05
1.65468e-05
1.64743e-05
1.63969e-05
1.63449e-05
1.62633e-05
1.62095e-05
1.61235e-05
1.60831e-05
1.59902e-05
1.5969e-05
1.58699e-05
1.58559e-05
1.57295e-05
1.57194e-05
1.5586e-05
1.56079e-05
1.54659e-05
1.55015e-05
1.53259e-05
1.53694e-05
1.51648e-05
1.52279e-05
1.5014e-05
1.51088e-05
1.48757e-05
1.49773e-05
1.47203e-05
1.48391e-05
1.45817e-05
1.47318e-05
1.44726e-05
1.46423e-05
1.43536e-05
1.45442e-05
1.42356e-05
1.44671e-05
1.41381e-05
1.44358e-05
1.40575e-05
1.44379e-05
1.40684e-05
1.4533e-05
1.44051e-05
1.50389e-05
1.60555e-05
1.78111e-05
2.28374e-05
2.63663e-05
3.16723e-05
3.62963e-05
3.79971e-05
3.91267e-05
3.72673e-05
3.49165e-05
4.42777e-05
4.69751e-05
2.99247e-05
1.10913e-05
2.67102e-06
3.25351e-07
3.73619e-08
2.0573e-08
2.90654e-08
3.11495e-08
2.95661e-08
2.84769e-08
2.93209e-08
2.86143e-08
2.83593e-08
2.89209e-08
2.85725e-08
2.84615e-08
2.90086e-08
2.80148e-08
2.87908e-08
2.78988e-08
2.92593e-08
2.79894e-08
2.80287e-08
2.92288e-08
2.78465e-08
2.8761e-08
2.80289e-08
2.90453e-08
2.83867e-08
2.85611e-08
2.89482e-08
2.84732e-08
2.85281e-08
2.93124e-08
2.85726e-08
2.91957e-08
3.0125e-08
3.78582e-08
4.9558e-08
3.91603e-08
3.42334e-08
1.57351e-07
2.79952e-06
1.27641e-05
3.12131e-05
4.23287e-05
4.16903e-05
4.18814e-05
3.96178e-05
3.66155e-05
3.41196e-05
3.15809e-05
2.97391e-05
2.86268e-05
2.78378e-05
2.76617e-05
2.76058e-05
2.74963e-05
2.76078e-05
2.75333e-05
2.76848e-05
2.76245e-05
2.78007e-05
2.77434e-05
2.79544e-05
2.78807e-05
2.81268e-05
2.80365e-05
2.83039e-05
2.82085e-05
2.85092e-05
2.84271e-05
2.87584e-05
2.8689e-05
2.90713e-05
2.90317e-05
2.94318e-05
2.94728e-05
2.99783e-05
3.0037e-05
3.04484e-05
3.0457e-05
3.0826e-05
3.07786e-05
3.09873e-05
3.09028e-05
3.11446e-05
3.11178e-05
3.14103e-05
3.15509e-05
3.19527e-05
3.21159e-05
3.23739e-05
3.22837e-05
3.21656e-05
3.18275e-05
3.16441e-05
3.15499e-05
3.18333e-05
3.21536e-05
3.23405e-05
3.20176e-05
3.13314e-05
3.06236e-05
3.05477e-05
3.10303e-05
3.14726e-05
3.09808e-05
2.98555e-05
2.92355e-05
2.97809e-05
3.04633e-05
2.9877e-05
2.8589e-05
2.83643e-05
2.92189e-05
2.91305e-05
2.78245e-05
2.74184e-05
2.81469e-05
2.78919e-05
2.65889e-05
2.65309e-05
2.70697e-05
2.60818e-05
2.53994e-05
2.60285e-05
2.55135e-05
2.46519e-05
2.49211e-05
2.42882e-05
2.35037e-05
2.35543e-05
2.28729e-05
2.22597e-05
2.20919e-05
2.13247e-05
2.10165e-05
2.05008e-05
2.00075e-05
1.9547e-05
1.91654e-05
1.86308e-05
1.83343e-05
1.78477e-05
1.75733e-05
1.72073e-05
1.70164e-05
1.66332e-05
1.64649e-05
1.61181e-05
1.58851e-05
1.56189e-05
1.53478e-05
1.50921e-05
1.47733e-05
1.44637e-05
1.41806e-05
1.38597e-05
1.35428e-05
1.31902e-05
1.28385e-05
1.24462e-05
1.20813e-05
1.16949e-05
1.13019e-05
1.08591e-05
1.03952e-05
9.88536e-06
9.33963e-06
8.74941e-06
8.12542e-06
7.43673e-06
6.73086e-06
6.00905e-06
5.29261e-06
4.55954e-06
3.80678e-06
3.00998e-06
2.28773e-06
1.82972e-06
1.63602e-06
1.32426e-06
6.67664e-07
1.75353e-07
9.31134e-08
7.34976e-08
3.93434e-08
3.47393e-08
5.31774e-08
7.13662e-08
8.85183e-08
5.24002e-08
3.47918e-08
9.88335e-08
1.94576e-07
1.23299e-07
1.10972e-07
8.34571e-08
6.80608e-08
4.81183e-08
7.31354e-08
1.82183e-07
7.41888e-08
7.85145e-08
4.50725e-08
2.59205e-08
5.85361e-08
3.97996e-08
5.4327e-08
2.97743e-08
4.29162e-08
4.2149e-08
5.02561e-08
2.63169e-08
3.38428e-08
5.64084e-08
1.04507e-08
1.239e-09
1.17245e-07
4.63473e-07
4.69236e-07
5.07e-07
1.05971e-06
1.66747e-06
2.18649e-06
2.75289e-06
3.45903e-06
4.15979e-06
4.8625e-06
5.57413e-06
6.34581e-06
7.10929e-06
7.89931e-06
8.65501e-06
9.3551e-06
9.97325e-06
1.0575e-05
1.10729e-05
1.15517e-05
1.19556e-05
1.23638e-05
1.27089e-05
1.29754e-05
1.3306e-05
1.3657e-05
1.39613e-05
1.4297e-05
1.45951e-05
1.49094e-05
1.52251e-05
1.552e-05
1.57585e-05
1.58841e-05
1.60942e-05
1.62973e-05
1.63609e-05
1.67669e-05
1.67421e-05
1.71933e-05
1.71505e-05
1.75032e-05
1.76664e-05
1.77302e-05
1.80535e-05
1.80466e-05
1.81425e-05
1.84858e-05
1.83851e-05
1.85709e-05
1.86411e-05
1.9021e-05
1.86076e-05
1.87687e-05
1.96308e-05
1.81402e-05
1.90583e-05
2.07913e-05
2.07964e-05
2.6646e-05
3.30426e-05
3.58788e-05
3.6594e-05
3.63169e-05
3.63152e-05
3.59985e-05
3.58214e-05
3.52818e-05
3.48781e-05
3.39339e-05
3.33243e-05
3.28043e-05
3.25153e-05
3.21191e-05
3.16483e-05
3.11999e-05
3.12012e-05
3.11121e-05
3.07986e-05
3.04607e-05
3.03999e-05
3.01806e-05
2.98913e-05
2.97313e-05
2.9534e-05
2.92534e-05
2.91382e-05
2.91448e-05
2.91179e-05
2.91219e-05
2.9187e-05
2.92667e-05
2.93131e-05
2.93855e-05
2.94554e-05
2.95643e-05
2.96249e-05
2.97211e-05
2.97637e-05
2.9868e-05
2.98986e-05
3.00196e-05
3.00438e-05
3.01671e-05
3.01437e-05
3.02331e-05
3.0173e-05
3.02823e-05
3.02166e-05
3.03157e-05
3.01874e-05
3.02384e-05
3.00403e-05
3.00643e-05
2.98467e-05
2.98792e-05
2.96491e-05
2.9665e-05
2.9403e-05
2.94176e-05
2.91654e-05
2.92122e-05
2.89999e-05
2.90745e-05
2.88622e-05
2.89508e-05
2.87529e-05
2.88617e-05
2.87173e-05
2.88703e-05
2.87801e-05
2.90331e-05
2.90345e-05
2.94308e-05
2.97336e-05
3.02828e-05
3.09467e-05
3.20776e-05
3.17803e-05
3.34609e-05
3.96578e-05
4.52956e-05
4.86366e-05
5.20364e-05
5.03408e-05
4.38351e-05
4.71005e-05
4.84605e-05
3.23038e-05
1.2703e-05
3.25531e-06
3.80269e-07
8.45831e-08
3.42753e-08
2.33388e-08
2.65093e-08
2.9113e-08
2.88631e-08
2.92536e-08
2.84667e-08
2.83908e-08
2.91144e-08
2.86027e-08
2.83279e-08
2.90302e-08
2.80053e-08
2.87677e-08
2.78678e-08
2.91491e-08
2.79977e-08
2.79224e-08
2.91119e-08
2.77858e-08
2.87361e-08
2.79946e-08
2.90472e-08
2.83466e-08
2.85636e-08
2.90241e-08
2.83874e-08
2.84949e-08
2.91733e-08
2.84761e-08
2.89096e-08
2.78592e-08
2.88465e-08
4.12972e-08
8.04584e-08
7.27453e-08
2.17972e-07
1.70861e-06
8.37186e-06
2.46961e-05
3.88759e-05
4.14588e-05
4.27501e-05
4.19682e-05
4.00631e-05
3.87485e-05
3.71447e-05
3.6157e-05
3.53228e-05
3.4983e-05
3.47134e-05
3.46694e-05
3.46238e-05
3.46854e-05
3.47196e-05
3.4837e-05
3.48883e-05
3.50344e-05
3.51004e-05
3.52659e-05
3.53325e-05
3.55245e-05
3.55956e-05
3.58106e-05
3.58983e-05
3.61541e-05
3.62707e-05
3.6582e-05
3.67268e-05
3.71207e-05
3.73228e-05
3.77629e-05
3.80061e-05
3.85438e-05
3.87763e-05
3.92106e-05
3.93521e-05
3.97054e-05
3.97137e-05
3.99112e-05
3.98862e-05
4.01477e-05
4.02329e-05
4.06367e-05
4.09276e-05
4.14434e-05
4.16723e-05
4.1881e-05
4.16415e-05
4.13124e-05
4.07682e-05
4.04794e-05
4.04354e-05
4.08719e-05
4.12775e-05
4.13148e-05
4.05731e-05
3.93939e-05
3.84064e-05
3.84464e-05
3.91724e-05
3.95383e-05
3.84514e-05
3.66929e-05
3.59814e-05
3.69128e-05
3.76316e-05
3.63769e-05
3.44725e-05
3.43878e-05
3.55494e-05
3.49981e-05
3.29753e-05
3.25923e-05
3.35648e-05
3.28088e-05
3.0877e-05
3.09654e-05
3.15233e-05
2.98821e-05
2.90385e-05
2.98039e-05
2.87393e-05
2.75813e-05
2.79446e-05
2.68043e-05
2.56906e-05
2.57087e-05
2.45667e-05
2.37025e-05
2.33925e-05
2.22161e-05
2.1768e-05
2.0973e-05
2.02442e-05
1.95743e-05
1.89968e-05
1.82192e-05
1.77878e-05
1.70711e-05
1.66625e-05
1.60932e-05
1.57625e-05
1.52184e-05
1.48804e-05
1.43828e-05
1.39799e-05
1.352e-05
1.30951e-05
1.26276e-05
1.21388e-05
1.16135e-05
1.11394e-05
1.05925e-05
1.00724e-05
9.46143e-06
8.85032e-06
8.15148e-06
7.46641e-06
6.72992e-06
6.00228e-06
5.22524e-06
4.46517e-06
3.72184e-06
3.05017e-06
2.43045e-06
1.86007e-06
1.32823e-06
9.04851e-07
5.62844e-07
3.20368e-07
1.59309e-07
1.05289e-07
6.02879e-08
3.69133e-08
3.40667e-08
3.90545e-08
3.53026e-08
3.13634e-08
3.72394e-08
4.25138e-08
4.80474e-08
5.11483e-08
4.09289e-08
3.15938e-08
3.27008e-08
3.71044e-08
3.10888e-08
3.85624e-08
2.12214e-08
1.81304e-08
2.08062e-08
3.88104e-08
4.23824e-08
4.92558e-08
6.04768e-08
4.98934e-08
1.5449e-08
8.01815e-08
3.83747e-08
8.47837e-08
1.25825e-07
6.97282e-08
3.80186e-08
5.0412e-08
2.89386e-08
2.65469e-08
1.53515e-08
1.71745e-08
1.04733e-08
1.47672e-08
1.61413e-08
1.73728e-08
9.86664e-09
1.45052e-08
1.83894e-08
1.04649e-08
8.07334e-09
1.40896e-08
1.85656e-08
2.00239e-08
2.99211e-08
6.79734e-08
1.25012e-07
2.46866e-07
4.29599e-07
7.51866e-07
1.14573e-06
1.60919e-06
2.15073e-06
2.77778e-06
3.39243e-06
4.11703e-06
4.8392e-06
5.66676e-06
6.45219e-06
7.2637e-06
8.0507e-06
8.75538e-06
9.42903e-06
1.01068e-05
1.06927e-05
1.12933e-05
1.1836e-05
1.23834e-05
1.29274e-05
1.34413e-05
1.39108e-05
1.42831e-05
1.47002e-05
1.51584e-05
1.53405e-05
1.60369e-05
1.6058e-05
1.68228e-05
1.67994e-05
1.73487e-05
1.77056e-05
1.78323e-05
1.83417e-05
1.84738e-05
1.86198e-05
1.9224e-05
1.90701e-05
1.95113e-05
1.9615e-05
2.01843e-05
1.98515e-05
1.9936e-05
2.12873e-05
1.97725e-05
2.11246e-05
2.39143e-05
2.36499e-05
2.9832e-05
3.78511e-05
4.20963e-05
4.36857e-05
4.37331e-05
4.41144e-05
4.40512e-05
4.41681e-05
4.37041e-05
4.3413e-05
4.23207e-05
4.16538e-05
4.10033e-05
4.06097e-05
4.01674e-05
3.97401e-05
3.92028e-05
3.91985e-05
3.91697e-05
3.89129e-05
3.85464e-05
3.85456e-05
3.83755e-05
3.80579e-05
3.79134e-05
3.7757e-05
3.74624e-05
3.73615e-05
3.74632e-05
3.754e-05
3.76511e-05
3.78535e-05
3.80962e-05
3.82975e-05
3.85271e-05
3.87634e-05
3.90502e-05
3.92865e-05
3.95586e-05
3.97747e-05
4.00531e-05
4.02618e-05
4.05559e-05
4.07613e-05
4.10515e-05
4.12074e-05
4.14465e-05
4.15512e-05
4.17864e-05
4.18772e-05
4.20782e-05
4.20901e-05
4.22008e-05
4.21125e-05
4.21466e-05
4.20155e-05
4.20218e-05
4.187e-05
4.18348e-05
4.1651e-05
4.15948e-05
4.14257e-05
4.13841e-05
4.1272e-05
4.12429e-05
4.11453e-05
4.11208e-05
4.1048e-05
4.10445e-05
4.10443e-05
4.1082e-05
4.11885e-05
4.12875e-05
4.15124e-05
4.17273e-05
4.22393e-05
4.27217e-05
4.36294e-05
4.47592e-05
4.5516e-05
4.53156e-05
4.70414e-05
5.11079e-05
5.50545e-05
5.94719e-05
5.95769e-05
5.57365e-05
5.44185e-05
5.03851e-05
3.39878e-05
1.35759e-05
3.39906e-06
3.36965e-07
3.95792e-08
4.74679e-08
3.8354e-08
2.907e-08
2.86445e-08
2.85429e-08
2.93118e-08
2.86147e-08
2.84116e-08
2.89125e-08
2.85818e-08
2.84442e-08
2.90201e-08
2.80536e-08
2.881e-08
2.78523e-08
2.92332e-08
2.79898e-08
2.80016e-08
2.91782e-08
2.79229e-08
2.87591e-08
2.80396e-08
2.90076e-08
2.84076e-08
2.85867e-08
2.88106e-08
2.84834e-08
2.86265e-08
2.93492e-08
2.85872e-08
2.891e-08
2.81544e-08
2.42995e-08
1.44188e-08
1.66316e-08
3.36822e-08
5.07261e-08
4.93774e-07
4.73201e-06
1.77774e-05
3.41574e-05
4.03598e-05
4.26407e-05
4.32877e-05
4.28095e-05
4.21276e-05
4.15097e-05
4.08028e-05
4.0595e-05
4.01298e-05
4.02024e-05
3.99754e-05
4.01525e-05
4.00723e-05
4.02866e-05
4.03006e-05
4.05137e-05
4.05928e-05
4.07941e-05
4.09235e-05
4.11164e-05
4.12927e-05
4.14969e-05
4.17167e-05
4.19532e-05
4.22335e-05
4.25129e-05
4.28817e-05
4.32025e-05
4.36681e-05
4.40622e-05
4.45573e-05
4.49528e-05
4.55124e-05
4.5864e-05
4.62851e-05
4.65028e-05
4.68068e-05
4.6862e-05
4.70372e-05
4.71005e-05
4.74045e-05
4.76443e-05
4.81591e-05
4.85963e-05
4.91448e-05
4.93532e-05
4.93929e-05
4.89438e-05
4.83722e-05
4.76803e-05
4.73765e-05
4.74665e-05
4.80329e-05
4.8393e-05
4.80919e-05
4.68346e-05
4.52198e-05
4.41436e-05
4.44331e-05
4.5313e-05
4.53409e-05
4.35189e-05
4.12773e-05
4.07412e-05
4.20708e-05
4.25343e-05
4.04553e-05
3.8143e-05
3.84144e-05
3.97159e-05
3.84516e-05
3.58371e-05
3.56981e-05
3.67819e-05
3.53241e-05
3.29248e-05
3.33093e-05
3.36973e-05
3.13746e-05
3.05402e-05
3.133e-05
2.96245e-05
2.8341e-05
2.87642e-05
2.70455e-05
2.57252e-05
2.56988e-05
2.40764e-05
2.30647e-05
2.26042e-05
2.10604e-05
2.05337e-05
1.94835e-05
1.85671e-05
1.77384e-05
1.69842e-05
1.60142e-05
1.54618e-05
1.45387e-05
1.40171e-05
1.32557e-05
1.278e-05
1.2078e-05
1.15639e-05
1.09163e-05
1.03235e-05
9.66619e-06
9.06673e-06
8.33418e-06
7.63905e-06
6.79471e-06
6.06979e-06
5.21472e-06
4.51214e-06
3.69903e-06
3.04007e-06
2.32712e-06
1.79369e-06
1.24526e-06
8.62278e-07
4.8531e-07
2.94044e-07
1.56301e-07
1.01731e-07
7.38966e-08
6.0834e-08
4.09746e-08
4.66039e-08
3.98574e-08
4.60426e-08
3.41473e-08
4.67733e-08
3.46728e-08
4.57225e-08
4.42431e-08
5.40449e-08
4.86332e-08
6.1947e-08
4.34782e-08
5.05588e-08
4.0926e-08
5.1071e-08
5.67791e-08
6.04908e-08
5.5781e-08
6.21189e-08
6.83195e-08
8.29591e-08
8.71915e-08
1.04185e-07
9.46889e-08
7.03245e-08
7.69327e-08
6.11602e-08
7.32301e-08
7.65384e-08
1.02413e-07
7.25532e-08
4.60948e-08
6.20325e-08
6.36146e-08
4.89488e-08
4.15749e-08
3.96727e-08
2.74067e-08
3.88179e-08
2.75722e-08
2.98255e-08
1.66016e-08
1.68888e-08
1.09868e-08
1.18159e-08
9.38509e-09
1.15625e-08
1.15167e-08
1.1861e-08
1.14859e-08
1.33601e-08
1.30721e-08
1.40687e-08
1.45894e-08
1.76777e-08
1.53414e-08
2.03943e-08
1.56237e-08
1.95184e-08
2.13007e-08
2.75666e-08
3.80061e-08
8.56841e-08
1.12398e-07
2.60389e-07
3.93571e-07
7.70237e-07
1.13159e-06
1.64289e-06
2.16042e-06
2.81244e-06
3.49446e-06
4.27996e-06
5.01012e-06
5.84199e-06
6.65881e-06
7.50982e-06
8.35549e-06
9.15571e-06
9.92196e-06
1.05844e-05
1.12269e-05
1.19909e-05
1.23183e-05
1.33359e-05
1.34083e-05
1.4488e-05
1.45523e-05
1.52682e-05
1.5839e-05
1.60427e-05
1.67729e-05
1.7043e-05
1.72299e-05
1.81314e-05
1.80005e-05
1.86182e-05
1.88443e-05
1.95479e-05
1.94071e-05
1.9349e-05
2.11443e-05
1.98878e-05
2.15552e-05
2.52371e-05
2.47894e-05
3.06815e-05
3.9653e-05
4.50477e-05
4.74634e-05
4.78477e-05
4.8645e-05
4.89495e-05
4.95012e-05
4.92678e-05
4.92423e-05
4.81666e-05
4.75572e-05
4.68849e-05
4.64085e-05
4.59222e-05
4.56253e-05
4.51007e-05
4.50833e-05
4.51156e-05
4.49825e-05
4.46422e-05
4.47149e-05
4.4662e-05
4.43667e-05
4.42431e-05
4.41656e-05
4.39029e-05
4.38147e-05
4.40019e-05
4.42012e-05
4.44313e-05
4.47718e-05
4.51874e-05
4.55639e-05
4.59669e-05
4.63817e-05
4.68592e-05
4.72906e-05
4.77569e-05
4.8167e-05
4.86391e-05
4.90484e-05
4.95353e-05
4.99432e-05
5.0425e-05
5.07876e-05
5.12112e-05
5.1514e-05
5.19118e-05
5.21875e-05
5.25319e-05
5.27148e-05
5.29402e-05
5.29952e-05
5.30997e-05
5.30764e-05
5.31147e-05
5.30486e-05
5.30212e-05
5.29151e-05
5.28513e-05
5.2753e-05
5.26838e-05
5.26392e-05
5.25728e-05
5.25494e-05
5.24848e-05
5.24851e-05
5.2435e-05
5.25052e-05
5.2471e-05
5.26604e-05
5.26798e-05
5.29457e-05
5.30933e-05
5.35747e-05
5.40024e-05
5.47771e-05
5.57224e-05
5.67004e-05
5.73197e-05
5.80086e-05
5.77616e-05
6.077e-05
6.42488e-05
6.58231e-05
6.72766e-05
6.5964e-05
5.4487e-05
3.52595e-05
1.51976e-05
3.83673e-06
4.01361e-07
2.81483e-08
2.19099e-08
2.95008e-08
3.03394e-08
2.94773e-08
2.87121e-08
2.91358e-08
2.84986e-08
2.84285e-08
2.90092e-08
2.85705e-08
2.83047e-08
2.90874e-08
2.80196e-08
2.8782e-08
2.78319e-08
2.91838e-08
2.79694e-08
2.79145e-08
2.915e-08
2.76158e-08
2.87405e-08
2.80072e-08
2.9026e-08
2.83522e-08
2.86039e-08
2.9075e-08
2.83701e-08
2.84174e-08
2.93462e-08
2.86282e-08
2.91232e-08
2.88628e-08
2.95004e-08
2.40844e-08
1.06144e-08
1.25159e-08
8.90237e-09
1.92724e-08
2.1375e-06
1.12615e-05
2.82276e-05
3.85111e-05
4.18657e-05
4.33947e-05
4.39678e-05
4.39498e-05
4.38332e-05
4.37058e-05
4.3603e-05
4.36065e-05
4.36062e-05
4.36882e-05
4.37825e-05
4.39067e-05
4.40691e-05
4.42189e-05
4.4433e-05
4.45908e-05
4.48477e-05
4.50305e-05
4.53047e-05
4.55402e-05
4.58467e-05
4.61358e-05
4.65041e-05
4.68677e-05
4.72935e-05
4.7758e-05
4.82416e-05
4.87909e-05
4.93341e-05
4.98748e-05
5.03729e-05
5.09295e-05
5.13321e-05
5.17061e-05
5.19529e-05
5.22066e-05
5.23027e-05
5.24869e-05
5.26642e-05
5.30597e-05
5.34707e-05
5.40925e-05
5.46185e-05
5.51113e-05
5.51896e-05
5.49737e-05
5.42802e-05
5.34976e-05
5.2755e-05
5.25343e-05
5.28086e-05
5.34298e-05
5.35764e-05
5.27773e-05
5.09742e-05
4.90561e-05
4.80995e-05
4.87158e-05
4.95809e-05
4.9014e-05
4.64052e-05
4.39157e-05
4.37991e-05
4.5435e-05
4.53263e-05
4.23632e-05
3.99195e-05
4.07075e-05
4.19069e-05
3.97358e-05
3.67319e-05
3.70261e-05
3.80229e-05
3.57126e-05
3.30649e-05
3.38471e-05
3.38475e-05
3.08713e-05
3.0218e-05
3.0903e-05
2.85101e-05
2.72756e-05
2.76964e-05
2.53615e-05
2.39733e-05
2.38794e-05
2.17783e-05
2.07294e-05
2.01025e-05
1.82508e-05
1.77034e-05
1.64172e-05
1.53658e-05
1.44148e-05
1.34985e-05
1.2375e-05
1.17092e-05
1.06106e-05
9.96103e-06
9.01017e-06
8.35553e-06
7.47868e-06
6.71635e-06
5.88741e-06
5.04854e-06
4.21647e-06
3.51579e-06
2.74631e-06
2.16755e-06
1.45344e-06
1.05889e-06
5.16724e-07
4.24687e-07
1.26742e-07
1.29256e-07
3.75235e-08
7.01712e-08
2.45163e-08
5.23237e-08
2.38625e-08
3.62195e-08
2.61104e-08
2.93657e-08
2.29979e-08
3.32251e-08
2.33155e-08
3.74723e-08
2.48599e-08
4.0109e-08
2.64227e-08
4.53076e-08
3.07106e-08
4.63044e-08
2.99629e-08
3.83551e-08
2.53915e-08
3.48003e-08
3.00706e-08
4.09873e-08
3.84435e-08
3.62906e-08
3.71938e-08
3.3201e-08
4.63087e-08
3.36908e-08
4.01739e-08
2.42577e-08
3.3885e-08
2.04475e-08
3.53503e-08
3.15763e-08
4.79397e-08
4.29438e-08
3.51189e-08
4.35031e-08
3.60761e-08
6.5353e-08
5.68967e-08
8.44369e-08
7.49996e-08
4.99585e-08
7.021e-08
5.11754e-08
3.29396e-08
2.95044e-08
2.02853e-08
2.42223e-08
1.93186e-08
2.32808e-08
1.79196e-08
1.87314e-08
1.41879e-08
1.50689e-08
1.14583e-08
1.31367e-08
9.61075e-09
1.26589e-08
8.51468e-09
1.16177e-08
7.07765e-09
1.10685e-08
6.42209e-09
1.17447e-08
6.83406e-09
1.2639e-08
7.47616e-09
1.29737e-08
7.03698e-09
1.44484e-08
7.25085e-09
1.8216e-08
8.8951e-09
2.35505e-08
1.44069e-08
3.77514e-08
3.44158e-08
9.24221e-08
1.449e-07
3.6555e-07
5.60116e-07
9.54936e-07
1.39761e-06
1.92581e-06
2.55366e-06
3.21265e-06
3.97589e-06
4.8055e-06
5.62756e-06
6.75765e-06
7.30199e-06
8.72618e-06
8.95181e-06
1.03595e-05
1.06088e-05
1.14738e-05
1.23172e-05
1.2572e-05
1.35324e-05
1.40196e-05
1.42499e-05
1.54078e-05
1.53504e-05
1.6119e-05
1.65746e-05
1.72915e-05
1.7474e-05
1.73302e-05
1.9354e-05
1.85901e-05
2.0557e-05
2.49943e-05
2.45558e-05
2.98075e-05
3.91231e-05
4.52685e-05
4.83507e-05
4.90019e-05
5.01864e-05
5.09184e-05
5.20237e-05
5.21572e-05
5.2545e-05
5.16542e-05
5.12019e-05
5.06191e-05
5.01155e-05
4.95952e-05
4.94861e-05
4.90691e-05
4.90533e-05
4.91445e-05
4.91914e-05
4.89346e-05
4.9083e-05
4.92022e-05
4.89972e-05
4.8905e-05
4.89315e-05
4.87536e-05
4.86859e-05
4.89424e-05
4.92696e-05
4.96291e-05
5.01054e-05
5.06924e-05
5.12561e-05
5.18429e-05
5.24412e-05
5.31137e-05
5.37498e-05
5.44201e-05
5.50346e-05
5.57073e-05
5.63249e-05
5.70125e-05
5.76303e-05
5.83138e-05
5.88944e-05
5.95199e-05
6.00389e-05
6.06207e-05
6.10984e-05
6.16119e-05
6.19867e-05
6.2361e-05
6.25871e-05
6.28054e-05
6.29149e-05
6.30257e-05
6.30646e-05
6.30827e-05
6.30669e-05
6.30303e-05
6.30062e-05
6.29443e-05
6.29605e-05
6.28927e-05
6.29304e-05
6.28536e-05
6.292e-05
6.28335e-05
6.29509e-05
6.28704e-05
6.30682e-05
6.30488e-05
6.33495e-05
6.33888e-05
6.38744e-05
6.40571e-05
6.48201e-05
6.53929e-05
6.6368e-05
6.69691e-05
6.7624e-05
6.72033e-05
6.70291e-05
6.77249e-05
6.91848e-05
7.49081e-05
7.75379e-05
6.1365e-05
3.51585e-05
1.70067e-05
5.24729e-06
7.19656e-07
5.48424e-08
2.69263e-08
2.47392e-08
2.70748e-08
2.89295e-08
2.85127e-08
2.93148e-08
2.85674e-08
2.84436e-08
2.88388e-08
2.86067e-08
2.84705e-08
2.8981e-08
2.803e-08
2.88061e-08
2.78482e-08
2.9215e-08
2.80018e-08
2.79925e-08
2.92516e-08
2.79885e-08
2.88028e-08
2.80602e-08
2.90342e-08
2.83623e-08
2.85994e-08
2.89216e-08
2.84852e-08
2.86892e-08
2.93049e-08
2.86358e-08
2.94769e-08
3.0247e-08
3.29442e-08
3.96238e-08
3.5888e-08
1.84221e-08
1.56335e-08
1.5139e-08
5.37254e-07
6.32982e-06
2.14226e-05
3.53626e-05
4.01602e-05
4.22923e-05
4.40918e-05
4.44542e-05
4.50451e-05
4.50767e-05
4.54389e-05
4.541e-05
4.57621e-05
4.57502e-05
4.61111e-05
4.61404e-05
4.6512e-05
4.65951e-05
4.69719e-05
4.71146e-05
4.75021e-05
4.77106e-05
4.81162e-05
4.84056e-05
4.8851e-05
4.92222e-05
4.97378e-05
5.0202e-05
5.07738e-05
5.13464e-05
5.19625e-05
5.25891e-05
5.32291e-05
5.37848e-05
5.43176e-05
5.48393e-05
5.52383e-05
5.55504e-05
5.57944e-05
5.60132e-05
5.6172e-05
5.64059e-05
5.67373e-05
5.72556e-05
5.7836e-05
5.85204e-05
5.90547e-05
5.93829e-05
5.92319e-05
5.86999e-05
5.77709e-05
5.68444e-05
5.61633e-05
5.612e-05
5.65729e-05
5.71212e-05
5.68673e-05
5.54524e-05
5.31466e-05
5.11124e-05
5.04735e-05
5.14106e-05
5.20201e-05
5.06335e-05
4.72892e-05
4.48479e-05
4.53379e-05
4.70797e-05
4.6091e-05
4.22939e-05
4.00412e-05
4.14183e-05
4.221e-05
3.90157e-05
3.58984e-05
3.67571e-05
3.74131e-05
3.41722e-05
3.15415e-05
3.27567e-05
3.21384e-05
2.8601e-05
2.82944e-05
2.87284e-05
2.56534e-05
2.46448e-05
2.49764e-05
2.20226e-05
2.07158e-05
2.0517e-05
1.79681e-05
1.69908e-05
1.61754e-05
1.40847e-05
1.35628e-05
1.20554e-05
1.08999e-05
9.83694e-06
8.71292e-06
7.41276e-06
6.55733e-06
5.26438e-06
4.51837e-06
3.49029e-06
2.85187e-06
2.16419e-06
1.53386e-06
1.11298e-06
5.46764e-07
3.17447e-07
1.6363e-07
1.03252e-07
5.28301e-08
5.02947e-08
3.22456e-08
3.35657e-08
3.3599e-08
4.03537e-08
2.52503e-08
4.72843e-08
2.54743e-08
3.91836e-08
2.42579e-08
5.18128e-08
1.58974e-08
8.03836e-08
1.2343e-08
9.36762e-08
1.47364e-08
7.94121e-08
1.83958e-08
6.48608e-08
2.24655e-08
5.55805e-08
2.2564e-08
4.99821e-08
2.23441e-08
5.49802e-08
2.9647e-08
7.03649e-08
3.38024e-08
6.6335e-08
2.83716e-08
6.17512e-08
3.20924e-08
6.81021e-08
3.51329e-08
6.16472e-08
3.83417e-08
7.18701e-08
5.68278e-08
8.51354e-08
7.42339e-08
8.47813e-08
7.59717e-08
6.58801e-08
8.71258e-08
8.71076e-08
7.80604e-08
6.55997e-08
7.3845e-08
4.54347e-08
8.17901e-08
6.18459e-08
4.59072e-08
4.5842e-08
2.45066e-08
3.30654e-08
2.53892e-08
2.32589e-08
1.62327e-08
1.4023e-08
1.1012e-08
1.15562e-08
9.82261e-09
1.09333e-08
9.65764e-09
1.05693e-08
9.47699e-09
1.0495e-08
1.00108e-08
1.09208e-08
1.08239e-08
1.13626e-08
1.10449e-08
1.06865e-08
1.03971e-08
9.24236e-09
1.01314e-08
9.05238e-09
1.06522e-08
9.75578e-09
1.06112e-08
9.5553e-09
1.01504e-08
8.76016e-09
1.13525e-08
7.93871e-09
1.44415e-08
8.57909e-09
1.60058e-08
1.10068e-08
1.91379e-08
1.48574e-08
2.11628e-08
2.93512e-08
3.10478e-08
9.06385e-08
1.03424e-07
2.76586e-07
5.4184e-07
7.80591e-07
1.70065e-06
1.6378e-06
3.16416e-06
3.04487e-06
4.61027e-06
4.90205e-06
5.89139e-06
7.0997e-06