/*--------------------------------*- C++ -*----------------------------------*\
| =========                 |                                                 |
| \\      /  F ield         | OpenFOAM: The Open Source CFD Toolbox           |
|  \\    /   O peration     | Version:  v2006                                 |
|   \\  /    A nd           | Website:  www.openfoam.com                      |
|    \\/     M anipulation  |                                                 |
\*---------------------------------------------------------------------------*/
FoamFile
{
    version     2.0;
    format      ascii;
    class       volScalarField;
    location    "100";
    object      ducSensor;
}
// * * * * * * * * * * * * * * * * * * * * * * * * * * * * * * * * * * * * * //

dimensions      [0 0 0 0 0 0 0];


internalField   nonuniform List<scalar> 
93840
(
0
0
0
0
0.0366095
0
0
0
0
0
0
0
0
0
0.011486
0
0
0
0.141394
0
0
0
0
0
0
0.017983
0
0
0
0.00633306
0
0.0213307
0
0
0
0
0
0
0
0
0
0
0
0
0
0
0
0
0
0
0
0
0
0
0
0
0
0
0
0
0
6.12471e-05
0
0
0
0
0
1.50461e-06
0
5.80238e-05
0
4.02532e-05
2.02857e-05
9.1262e-05
0.000135919
0.000169792
0.000173353
0.00015586
0.000159429
0.000158814
0.000177864
0.000228384
0.000274473
0.000296062
0.000264263
0.000261724
0.000272391
0.000267436
0.000282689
0.000326387
0.000376518
0.000384324
0.000397678
0.000405867
0.000419737
0.000429242
0.000431544
0.000426687
0.000428994
0.000447117
0.000458442
0.000464148
0.000625168
0.00077396
0.000534438
0.000287281
0.000440509
0.000642281
0.000664197
0.000645517
0.000626853
0.000607455
0.000656827
0.000664363
0.000621925
0.000560825
0.000566803
0.000539313
0.000445607
0.000366959
0.000285574
0.000184406
0.00010839
0
0
0
0
0
0
0
0
0
0
0
0
0
0
0
0
0
0
0
0
0
0
0
0
0
0
0
0
0
0
0
0
0
0
0
0
0
0
0
0
0
0
0
0
0
0
0
0
0
0
0
0
0
0
0
0
0
0
0
0
0
0
0
0
0
0
0
0
0
0
0
0
0
0
0
0
0
0.0005456
0
0
0
0
0
0
0
0
2.31336e-05
1.5734e-05
0
0
0
0
2.97941e-05
0
0
0
0
0
0
0
0
3.67395e-05
0.000127009
0.00013242
0.000159649
0.000217067
0
0
0
0
0
0
0
0
4.91098e-06
0
0
0
0
0
0
0
0
0
0
2.41683e-05
0
0
0
0
0
0.00144568
0.00373423
0.00646769
0.0110079
0.00583625
0.00138639
0.000744835
0.000828103
0.000746255
0.000657943
0.000621497
0.000591156
0.000599243
0.000770199
0.000882298
0.000638118
0.000412059
0.000634201
0.000925331
0.000827935
0.00057935
0.000607515
0.000797907
0.000872584
0.000825718
0.000820209
0.000850458
0.00088337
0.000913098
0.000953945
0.000975311
0.000974388
0.000970689
0.000989881
0.00100592
0.00102759
0.00106478
0.00109178
0.00113511
0.00117322
0.00123323
0.00128212
0.0013347
0.00136761
0.00143441
0.00142137
0.00152155
0.00148156
0.00166141
0.00166342
0.00182482
0.00170564
0.00199841
0.00181138
0.00207227
0.00185558
0.00259972
0.00221482
0.00269494
0.00195985
0.00351031
0.00268296
0.00298432
0.0029035
0.00671377
0.00243866
0.00501624
0.000720511
0.00222289
0
0.00336861
0.00686165
0.00957529
0.00583884
0.0248805
0
0.0225235
0
0
0
0
0.155659
0
0
0
0
0
0
0
0
0
0
0
0
0
0.114277
0
0
0
0.0404683
0
0
0
0
0.000231955
0
0
0.00116724
0.0155957
0.0695885
0
0
0
0.0583727
0.0371048
0
0.0323611
0.0379098
0.0442924
0.0127083
0.0325139
0.0108943
0.028395
0.00238297
0.0229922
0.0161801
0.0420063
0
0.0158689
0
0
0
0.105535
0
0.0133686
0.0106925
0.0321766
0.0197742
0.0210651
0.0666773
0.175105
0.0842738
0.0695205
0.045661
0.031028
0
0
0
0
0
0
0
0
0
0
0
0
0.00120431
0
0
0
0.000294871
0
0.000603522
0.0012787
0
0
0.00128307
0.00326907
0
0
0.00115032
0.00127889
0
0
0.00530034
0
0
0.000698667
0.00134351
0.000731714
0.00129038
0.000159303
0.00142836
0.000353437
0.000840588
0.000668182
0.00119575
0.00158989
0.00154608
0.0015715
0.00111467
0.00118243
0.00121324
0.00141468
0.00164472
0.00176876
0.00175298
0.00163722
0.00157884
0.00156777
0.00150091
0.00162906
0.00185206
0.00200343
0.00193367
0.00192263
0.00203514
0.00209842
0.00207835
0.00205938
0.0021192
0.0020966
0.0020365
0.00214533
0.00229694
0.00275192
0.00342902
0.00290626
0.00193481
0.00247461
0.00343339
0.00357777
0.00348603
0.0034357
0.00332702
0.00362225
0.0038218
0.00347991
0.00314612
0.00320694
0.00291784
0.0024081
0.00158672
0.00113658
0
0
0
0
0
0
0
0
0
0
0
0
0
0
0
0
0
0
0
0
0
0
0
0
0
0
0
0
0
0
0
0
0
0
0
0
0
0
0
0
0
0
0
0
0
0
0
0
0
0
0
0
0
0
0.00314521
0.0442057
0.264302
0
0.623466
0.92436
0.551043
0.61969
0.473904
0
0
0
0
0
0
0
0
0
0
0
0
0
0
0
0
0
0
0
0
0
0
0
0
0
0
0
0
0
0
0
0
0
0
0
0
0
0
0
0
0
0
0
0
0
0
0
0
0
0
0
0
0
0
0
0
0
0
0
0
0
0
0
0
0
0
0
0
0
0.00364318
0.00962336
0.0382069
0.0754295
0.0268331
0.00739275
0.00729105
0.00737259
0.00701272
0.00670266
0.00640711
0.00603648
0.00566677
0.00534385
0.00494547
0.00452985
0.00430178
0.00427809
0.00409804
0.00364606
0.00334969
0.00346948
0.0033557
0.00288918
0.00244675
0.00227691
0.00201902
0.00167188
0.00133586
0.000987943
0.000633798
0.000283095
6.61704e-05
0
0
0
0
0
0
0
0
0
0
0
0
0
0
0
0
0
0
0
0
0
0
0
0
0
0
0
0
0
0
0
0
0
0
0
0
0
0
0.00252868
0
0
0
0
0.000450923
0.022965
0.0156382
0.0418785
0
0
0
0.221928
0.0268723
0.0432601
0.0293293
0.0284109
0.0184157
0.0102019
0.00979019
0.01258
0.0366981
0.0239993
0.00838901
0
0.0403176
0
0
0.0189159
0
0.0163931
0.0404689
0.0222353
0
0.00932068
0
0
0.0144147
0
0.0231819
0.0301965
0.0587207
0
0
0.0125535
0.133621
0.0166948
0.0331806
0.0417833
0.00580769
0.0238106
0.0196341
0.0176429
0.00221721
0
0.0284584
0.00305647
0
0
0
0
0
0.0734103
0
0
0
0
0.00326944
0
0.00398328
0
0
0
0
0
0.00980319
0.0195403
0
0
0
0
0
0
0
0
0
0
0
0
0
0
0
0
0
0
0
0
0
0.000466248
0
0
0
0
0
0
0.002275
0
0
0
0
0
0.000195078
0
0.000558103
2.94992e-05
0.000844695
0.00100798
0.00195142
0.00240005
0.00243505
0.0026041
0.00237712
0.00239678
0.00237336
0.00265316
0.00322779
0.00372791
0.00393412
0.00357023
0.00352923
0.00357719
0.00350426
0.00369709
0.0042179
0.00474735
0.00478312
0.00481248
0.00492299
0.00502667
0.00513981
0.00514227
0.00516268
0.00518984
0.00530145
0.00542768
0.00545682
0.00706242
0.00915038
0.0068384
0.00359893
0.00519292
0.00761094
0.00789153
0.00777734
0.00765621
0.00747068
0.00814274
0.00855992
0.00795053
0.00752523
0.00785084
0.00745853
0.00670787
0.00524458
0.00483158
0.00271797
0.00162847
0
0
0
0
0
0
0
0
0
0
0
0
0
0
0
0
0
0
0
0
0
0
0
0
0
0
0
0
0
0
0
0
0
0
0
0
0
0
0
0
0
0
0
0
0
0
0
0
0
0
0
0
0
0
0
0
0
0
0
0
0
0
0
0
0
0
0
0
0
0
0
0
0
0
0
0
0
0
0.0349099
0
0
0
0.0264278
0
0
0
0
0
0
0
0
0.000146434
0.000291858
0
0
0
0
0
0
0
0
0
0
7.25237e-05
0.00145118
0.00152815
0
0
0
0
0
0
0
0
0
0
0
0
0
0
0
0
0
0
0
0
0
0
0
0
0.00415004
0.0164223
0.065545
0.107461
0.0758162
0.0291507
0.00687856
0.00583975
0.0061303
0.00594168
0.00591879
0.00591499
0.00586805
0.00603951
0.00718017
0.007873
0.0060569
0.00462814
0.0062658
0.00813726
0.00718172
0.0054778
0.00582384
0.00714065
0.00747796
0.00711203
0.00700607
0.00698162
0.00700107
0.00695449
0.00692346
0.00685219
0.00669453
0.00655073
0.00651976
0.00648176
0.0064751
0.00644636
0.00638569
0.0063525
0.00624391
0.00621992
0.00613489
0.00605599
0.00598913
0.00599838
0.00577539
0.00586095
0.005543
0.00575904
0.0054277
0.00547928
0.00491718
0.00533967
0.00470083
0.00489952
0.00433734
0.00546632
0.00457922
0.00473992
0.00352567
0.00575015
0.00481777
0.0050193
0.00358816
0.00632165
0.00270867
0.00316125
0.00604909
0.00713153
0.000328951
0.0089173
0
0
0.00349878
0
0.00274142
0.0274492
0.00683596
0.0441151
0
0.0111913
0
0.0308417
0
0.0262889
0
0
0
0
0
0
0
0
0
0
0.135112
0
0
0
0.0327191
0.0216755
0.0258042
0.0200007
0.0370921
0.0171533
0
0.19989
0.0161262
0.105457
0.0137821
0
0.10082
0.00247926
0
0.0454005
0
0
0
0.000105417
0
0.0198862
0.0038556
0
0
0
0.0259966
5.30665e-06
0
0
0
0
0.0462431
0.137798
0
0.00611218
0
0.00397132
0.00510982
0
0.0180164
0.0123329
0.0163826
0
0.00490459
0
0
0
0
0
0
0
0
0
0
0
0
0
0
0
0
0
0
0
0
0
0
0
0
0.000222707
0
0
0
0
0
0
0.00446428
0
0
0
0
0.000312815
0.000553559
0
0.000500824
0
0.00023834
0.00204754
0.00298109
0.00296906
0.00268288
0.0027673
0.00256148
0.0026653
0.00252076
0.00295534
0.0035562
0.00405658
0.00417566
0.0037975
0.00369854
0.00371506
0.00365474
0.00387274
0.00437293
0.00484011
0.00484773
0.00492709
0.00506158
0.00513737
0.00520812
0.0052438
0.00526748
0.0052194
0.00530528
0.005533
0.00565385
0.00729414
0.0094068
0.00711653
0.00387947
0.00553883
0.00806101
0.00842381
0.00840678
0.00834781
0.00819405
0.00906638
0.00953956
0.00900189
0.00863831
0.009135
0.00880276
0.00779634
0.00621957
0.00536651
0.00253733
0.00138166
0
0
0
0
0
0
0
0
0
0
0
0
0
0
0
0
0
0
0
0
0
0
0
0
0
0
0
0
0
0
0
0
0
0
0
0
0
0
0
0
0
0
0
0
0
0
0
0
0
0
0
0
0
0
0
0
0
0
0
0
0
0
0
0
0
0
0
0
0
0
0
0
0
0
0
0
0
0.163315
0
0
0
0
0
0
0.061264
0
0
0
0.000682736
0
0
0
0
0
0
0
0
0
0
0
0
0
0
0
0.000571641
0.0020439
0
0
0
0
0
0
0
0
0
0
0
0
0
0
0
0
0
0
0
0
0
0
0
0
0.00266362
0.0303368
0.0922214
0.104127
0.0913057
0.0354706
0.00810603
0.00705284
0.00711472
0.00688019
0.00684359
0.00685734
0.00678438
0.00688158
0.00767585
0.0080967
0.00661151
0.00545813
0.00670596
0.00804389
0.00720324
0.00588938
0.00609152
0.00694154
0.00706485
0.00670817
0.00652734
0.00638266
0.00625277
0.00609145
0.00593441
0.00573391
0.00551986
0.00530509
0.00518978
0.00504039
0.00493126
0.0048164
0.00466103
0.00453576
0.00436449
0.00424856
0.00412383
0.00391542
0.00377831
0.00366399
0.00344028
0.00338983
0.00309137
0.00311797
0.0027146
0.00259831
0.00217245
0.0024619
0.00195429
0.00192754
0.00151171
0.00232468
0.00161693
0.00169237
0.000752592
0.00254729
0.00179034
0.000910255
0.00113931
0.00528377
0.000251836
0.000786752
0.000109646
0
0
0.00105781
0.0019087
0.0155983
0.00620581
0.00390026
0
0
0
0
0.0238649
0.00998185
0
0.0120502
0
0.82046
0.0322716
0.0156214
0.0107484
0.00242306
0
0
0
0.00164183
0
0
0
0
0
0
0.0635504
0.0115143
0.00140477
0.0190357
0.00968981
0.0153958
0.0237408
0
0.0161373
0
0.0219892
0.00259138
0
0
0.0719914
0.0413336
0
0
0
0.014689
0
0.0145375
0
0
0
0
0.00975025
0
0
0
0
0
0
0.0845049
0
0.00795614
0
0.00433042
0.0102636
0.00380868
0.00666234
0
0.0118417
0
0.0127116
0
0.00396709
0
0
0
0
0
0
0
0
0
0
0
0
0
0
0
0
0
0
0
0
0
0
0.000356418
0
0
0
0
0
0
0.00472043
0
0
0
0
0.000571525
0
0
0
0
0.000528896
0.00230873
0.00328543
0.00328131
0.00279518
0.00307979
0.00286459
0.00293325
0.00277427
0.00327968
0.00400148
0.0045741
0.00467264
0.0042195
0.00409208
0.0041331
0.00408513
0.00431259
0.00483626
0.00535455
0.00542468
0.00557838
0.00568832
0.0057557
0.00585097
0.00593407
0.00592143
0.00586624
0.00604439
0.00636047
0.00655184
0.00856598
0.0109484
0.00816366
0.00456233
0.00655059
0.0095352
0.0100917
0.0102193
0.0102565
0.0102362
0.0114731
0.0121284
0.0117401
0.011458
0.0124621
0.0122954
0.0108427
0.00890191
0.00742278
0.00408398
0.00208119
0
0
0
0
0
0
0
0
0
0
0
0
0
0
0
0
0
0
0
0
0
0
0
0
0
0
0
0
0
0
0
0
0
0
0
0
0
0
0
0
0
0
0
0
0
0
0
0
0
0
0
0
0
0
0
0
0.257751
0
0.190293
0
0
0
0
0
0
0
0
0
0
0
0
0
0
0
0
0
0
0.387744
0
0
0
0.590012
0
0.216877
0
0.128611
0.31077
0.00312827
0
0
0.108767
0.0334047
0.0158754
0
0
0.00545497
0
0
0
0.00440471
0
0.0012739
0.00345046
0.000961114
0.00430403
0.00450475
0
0
0
0
0
0
0
0
0
0
0
0
0
0
0
0
0
0
0
0
0
0
0
0
0.000349396
0.0272818
0.118333
0.129794
0.103204
0.0435309
0.0101381
0.00793814
0.00791871
0.00735721
0.00706751
0.00709289
0.00705255
0.00719355
0.00814218
0.00867194
0.0071029
0.00579495
0.00712659
0.00866886
0.00783094
0.0063736
0.00655131
0.00748228
0.00766919
0.00728051
0.00706743
0.00694415
0.00682321
0.00667079
0.00654018
0.00634116
0.00611393
0.00588631
0.00575845
0.00559993
0.00546684
0.00534048
0.00517261
0.00503096
0.00487389
0.00476062
0.00465816
0.0044422
0.00429418
0.00414169
0.00389267
0.0038129
0.00354951
0.00350362
0.00314355
0.00301147
0.00265599
0.0028123
0.00238914
0.00230144
0.00198445
0.00256196
0.00201297
0.00201101
0.00120283
0.00266641
0.00238122
0.00136502
0.00175347
0.00529098
0
0.000968248
0.0011389
0
0.00305761
0.00157197
0
0.0161529
0
0
0.00767844
0
0
0
0.0411193
0.0160458
0
0
0.0392329
0.0673178
0.131547
0.0869553
0.0275021
0.0108968
0.00455616
0
0
0
0
0
0
0
0
0.0328163
0.0541598
0.0035656
0
0.0150216
0
0
0.0278428
0
0.0147485
0.0208266
0.123282
0.144052
0
0
0.12916
0
0
0
0.0261955
0
0
0.0258623
0.00964011
0.0342677
0.0425047
0.00813102
0.00173453
0
0.0155381
0
0
0
0.0378934
0
0
0
0
0
0.00596835
0
0.0160552
0.0251713
0
0.00645993
0
0
0
0
0
0
0
0
0
0
0
0
0
0
0
0
0
0
0
0
0
0
0
0
0
0.000526646
0
0
0
0
0
0
0.00448246
0
0
0
0
0.000603877
0
0.000321656
0.000114339
0
0
0.00330743
0.00397846
0.00399203
0.00300729
0.00293722
0.00326142
0.00288736
0.00302991
0.00357322
0.00437944
0.00498662
0.00504611
0.00451672
0.00442037
0.00450484
0.00451764
0.0047513
0.00527492
0.00586419
0.0059965
0.00613243
0.00621324
0.00631056
0.00650677
0.00665273
0.00662761
0.00658873
0.00685661
0.00724922
0.00745633
0.00981779
0.0127407
0.00957212
0.00538243
0.00791393
0.0113932
0.0121684
0.0126117
0.0128559
0.013099
0.0149185
0.0159652
0.0157101
0.0159927
0.017624
0.0176263
0.0160394
0.013691
0.0126087
0.00734318
0.00512034
0
0
0
0
0
0
0
0
0
0
0
0
0
0
0
0
0
0
0
0
0
0
0
0
0
0
0
0
0
0
0
0
0
0
0
0
0
0
0
0
0
0
0
0
0
0
0
0
0
0
0
0
0
0
0
0
0
0.205961
0.504177
0.147026
0
0
0
0
0
0
0
0
0
0
0
0
0
0
0
0
0
0.123988
0
0
0
0
0.240457
0
0
0
0
0
0
0
0
0.221804
0
0.121414
0
0
0.0386856
0
0
0.00464373
0.0536503
0.0473371
0.0360676
0.0265668
0.0325949
0.0179946
0
0
0
0
0
0
0
0
0
0
0
0
0
0
0
0
0
0
0
0
0
0
0
0
0.00624977
0.0269544
0.141443
0.186973
0.13491
0.0535958
0.00999263
0.00767171
0.00860264
0.00783821
0.00727249
0.00720038
0.00718633
0.00743229
0.00849961
0.00912653
0.00747874
0.00610902
0.00749947
0.00907583
0.00822237
0.00670297
0.00689844
0.00789168
0.00810872
0.00773789
0.00759228
0.00747444
0.00734062
0.00718316
0.00701217
0.0067872
0.00653676
0.00631853
0.00620189
0.00604854
0.0059522
0.00582429
0.00566788
0.00554169
0.00537347
0.00522197
0.00509125
0.00483237
0.00469473
0.00453654
0.00430495
0.00419644
0.00399139
0.00390976
0.003531
0.00338559
0.0030468
0.00313584
0.00273435
0.00265603
0.00240623
0.00285742
0.0024003
0.00225048
0.0015472
0.00307715
0.00289195
0.00204048
0.00192734
0.00341507
0.000779007
0.00205799
0.00270087
0.00341601
0.00194559
0.000842328
0
0
0
0.00129975
0.0160839
0.0198929
0
0
0.0181716
0.0103535
0
0.00169613
0.00575272
0.0214632
0
0.191171
0.0327198
0.0177539
0.0100142
0
0
0
0
0
0
0
0.0308547
0.0360995
0.0735733
0
0.00706927
0.0132103
0
0.0123405
0
0
0.0117352
0.0103182
0.0127223
0
0
0.0134808
0
0
0
0.0321359
0.0124575
0
0.0133761
0.0117895
0
0.013752
0.0146105
0
0.00678053
0
0
0
0
0
0
0
0
0
0
0
0.00564869
0.0102074
0
0
0
0
0.00179246
0
0
0
0
0
0
0
0
0
0
0
0
0
0
0
0
0
0
0
0
0
0
0
0
0.00122006
0
0
0
0
0
0
0.00419523
0
0
0
0
0.000630251
0
0.000814536
0.000113835
0
0
0.0033422
0.00423296
0.00407162
0.00312056
0.00288026
0.00315851
0.00313327
0.00309548
0.00378999
0.00471802
0.0053351
0.00532558
0.00476884
0.0046734
0.00483558
0.00484231
0.00503913
0.0055792
0.00627629
0.00653637
0.00673603
0.00676063
0.00689933
0.00717905
0.00737601
0.0073035
0.00733176
0.00778077
0.0082909
0.00866667
0.011578
0.0148193
0.0111514
0.00673763
0.00974043
0.0139524
0.0152765
0.0162066
0.0168295
0.0176412
0.0204622
0.0223745
0.0230261
0.0242473
0.0280777
0.0299964
0.0262569
0.0258926
0.0222425
0.0197806
0.010874
0
0
0
0
0
0
0
0
0
0
0
0
0
0
0
0
0
0
0
0
0
0
0
0
0
0
0
0
0
0
0
0
0
0
0
0
0
0
0
0
0
0
0
0
0
0
0
0
0
0
0
0
0
0
0
0
0.406121
0.125844
0.0223741
0
0
0
0
0
0
0
0
0
0
0
0
0
0
0
0
0
0
0
0
0
0
0
0
0.0801744
0
0.0185732
0
0
0
0.300922
0
0
0
0.132428
0.0838258
0
0
0
0
0.138883
0.115242
0.223224
0.0695594
0.117168
0.133275
0.0684041
0.0227436
0
0
0
0
0
0
0
0
0
0
0.00147224
0
0
0
0
0
0
0
0
0
0
0
0
0.00116684
0.0280106
0.176947
0.247451
0.161633
0.0642948
0.0139358
0.00768859
0.00925172
0.00836738
0.00741214
0.00725341
0.00726069
0.00754742
0.00876127
0.00946552
0.0077571
0.00627935
0.00770377
0.00943388
0.00861061
0.00701561
0.00718957
0.00821009
0.00848376
0.00809105
0.00789023
0.00779736
0.00768847
0.00753437
0.00741272
0.00722609
0.00697386
0.00672764
0.00660179
0.006442
0.0063063
0.00616983
0.00601516
0.00585291
0.00570753
0.00557424
0.00547904
0.0052529
0.00510358
0.00491164
0.0046653
0.00451104
0.00432171
0.00417529
0.00384672
0.00369086
0.00341007
0.00340664
0.00307415
0.00297045
0.00274052
0.00304579
0.00270569
0.00249504
0.00197138
0.00321409
0.00307985
0.00241531
0.00254322
0.00331817
0.00204843
0.00273482
0.0017683
0.0034465
0.00096309
0
0.00319265
0
0
0.00468841
0.00726499
0.0128724
0
0
0.00578106
0.00501758
0.0022277
0.00102822
0
0.0125029
0.00383201
0.045003
0.248055
0.0690311
0.0206674
0.00277641
0
0
0
0
0
0.0307299
0.060974
0.0373549
0.0316383
0
0
0.0132036
0.0270629
0
0.00593404
0.0102557
0.017392
0
0
0
0
0.0571923
0
0.103736
0.0539648
0
0.04427
0.0620863
0.0118631
0.0132709
0
0.0112073
0.00907664
0.0131276
0.0193621
0.0146998
0
0.0171916
0
0
0.031219
0
0
0
0
0
0.00232289
0.00261056
0.00759927
0.0260507
0
0.00381336
0
0
0
0
0
0
0
0
0
0
0
0
0
0
0
0
0
0
0
0
0
0
0
0
0
0.00230716
0
0
0
0
0
0
0.00289685
0
0
0
0
0.000496195
0
0.00176101
0.00095801
0
0
0.00325899
0.00374743
0.00508642
0.0038376
0.00296449
0.00355574
0.00271984
0.00338747
0.00406555
0.005043
0.00565478
0.00561617
0.00497995
0.00498929
0.00522055
0.00527195
0.00545479
0.00600755
0.00685196
0.00721234
0.00735706
0.00736157
0.00763044
0.00812988
0.00835675
0.0083197
0.00848982
0.0091408
0.00973106
0.010216
0.0139159
0.0181586
0.0139157
0.00871152
0.012944
0.0183055
0.0205304
0.0227421
0.0245314
0.0271983
0.0330529
0.0386394
0.0418616
0.0497155
0.0691425
0.0620374
0.0901221
0.0639941
0.128972
0.0104251
0.0574305
0
0
0
0
0
0
0
0
0
0
0
0
0
0
0
0
0
0
0
0
0
0
0
0
0
0
0
0
0
0
0
0
0
0
0
0
0
0
0
0
0
0
0
0
0
0
0
0
0
0
0
0
0
0
0
0
0
0.399442
0.610501
0.245303
0.685153
0
0
0
0
0
0
0
0
0
0
0
0
0
0
0
0
0
0
0
0
0
0
0
0
0
0.462757
0
0
0.026065
0.307364
0.0439369
0.13979
0
0
0.108497
0.0757038
0
0
0.0597002
0.312206
0.172691
0.130787
0.204332
0.275672
0.130349
0.260408
0
0
0
0
0
0
0
0
0
0
0.0206019
0.0298668
0
0
0
0
0
0
0
0
0
0
0
0.00251536
0.0330671
0.235613
0.331008
0.206013
0.0896108
0.0102824
0.00739764
0.00983322
0.00869795
0.00754388
0.00731972
0.00732234
0.00769339
0.00902066
0.00984059
0.00806684
0.00653308
0.00800708
0.00973134
0.00888531
0.00723645
0.00741604
0.00849353
0.00878298
0.00840481
0.00828903
0.00821127
0.00808892
0.00794103
0.00776623
0.0075383
0.00727462
0.00704119
0.0069086
0.00675012
0.00666406
0.00652639
0.00639494
0.00626934
0.00610486
0.00595339
0.00581027
0.00552904
0.00538834
0.00519837
0.0049695
0.00483105
0.00468742
0.00450041
0.00420022
0.00397993
0.003726
0.00365713
0.00333443
0.00326304
0.00303069
0.00332061
0.0029561
0.0028469
0.00235216
0.00324571
0.00334113
0.00285104
0.00282874
0.00418434
0.00243068
0.00195545
0.0025463
0.00145203
0.00118737
0.00308709
0.00312054
0.00675838
0.000648148
0
0.000375602
0.00106626
0.00590731
0.00628145
0
0.00306173
0.0157328
0.00167841
0
0.00894663
0
0.0110089
0.00841025
0.0445982
0.0261428
0.0102978
0
0
0
0
0
0.103117
0.0139626
0
0.0209855
0.0136955
0.0175215
0.0117973
0
0
0.00286408
0
0.0129676
0.0429415
0.0435452
0.0361253
0.0751244
0
0
0.0857951
0
0
0.0310409
0
0
0.013352
0
0.00690268
0
0.00764914
0.00369597
0
0
0
0
0.0680045
0.0444063
0
0.0615621
0
0
0
0
0.0176138
0
0
0
0
0
0
0
0
0
0
0
0
0
0
0
0
0
0
0
0
0
0
0
0
0
0
0
0
0
0.0041814
0
0
0
0
0
0
0.00275952
0
0
0
0
0
0
0.00147198
0.00146001
0
0
0.00242958
0.00443872
0.00484488
0.00423885
0.00259512
0.00326764
0.00296441
0.00343178
0.00431702
0.00539219
0.00596694
0.00580468
0.00527558
0.00533652
0.00567172
0.00565987
0.00577104
0.00641981
0.00748738
0.00802928
0.00824607
0.00824749
0.0086588
0.00931848
0.00962511
0.00960624
0.0100609
0.0110977
0.0119523
0.0130333
0.018128
0.023374
0.0185469
0.0130043
0.019131
0.027683
0.033447
0.0390462
0.0444829
0.055345
0.0795254
0.0910036
0.120745
0.141952
0.221184
0.182758
0.289526
0.195086
0.332247
0.00424184
0.296545
0
0
0
0
0
0
0
0
0
0
0
0
0
0
0
0
0
0
0
0
0
0
0
0
0
0
0
0
0
0
0
0
0
0
0
0
0
0
0
0
0
0
0
0
0
0
0
0
0
0
0
0
0
0
0
0
0.350421
0.175459
0.231859
0
0
0
0
0
0
0
0
0
0
0
0
0
0
0
0
0
0
0
0
0
0
0
0
0
0
0
0
0.351094
0.235486
0
0
0.108608
0.406435
0.0188631
0
0
0
0
0
0
0
0.011792
0.250591
0.0985633
0.300634
0.105876
0.295425
0
0
0
0
0
0
0
0
0.0931097
0
0
0
0.0520032
0
0
0
0
0
0.0249894
0
0
0
0
0
0.0434778
0.3141
0.419314
0.267953
0.121534
0.00726189
0.00712941
0.0104602
0.00950784
0.00800683
0.00763938
0.00763028
0.00795963
0.00939511
0.0102376
0.00834875
0.00670119
0.0082067
0.0100649
0.00923331
0.0075328
0.00769325
0.00876885
0.00912388
0.00871861
0.00849168
0.0084346
0.00834702
0.00817969
0.00807811
0.00792566
0.00765167
0.00738764
0.00724086
0.00707955
0.00692557
0.00677435
0.00663203
0.00647021
0.00632555
0.00619372
0.00611367
0.00590277
0.00574577
0.0055454
0.00528839
0.00508672
0.00493019
0.00469054
0.0044355
0.00425227
0.0040037
0.00389776
0.00363643
0.00350213
0.00330477
0.00344393
0.00317499
0.00306506
0.00268573
0.0032932
0.00369189
0.0031435
0.00302893
0.00443127
0.00274683
0.00229504
0.00379686
0.00195187
0.00165274
0.00341024
0.00138877
0.00298908
0.00491123
0.0011499
0
0
0.00693464
0.0117576
0
0
0.0132868
0.00691523
0
0.00427741
0.000839567
0.00559823
0.0084549
0.0584473
0.135967
0.0263265
0
0
0
0
0
0.176775
0.05745
0.0196613
0
0
0
0.0109434
0
0
0
0
0.000523329
0
0
0
0.0553724
0
0.0216073
0.00421988
0.0343853
0.00951001
0
0
0.00121382
0.0161981
0
0.0132601
0.169726
0
0.0140384
0.0154633
0.00230739
0
0
0
0.011611
0
0.0340476
0
0
0
0.0011706
0.00171711
0.00583623
0.0100189
0.00404804
0
0
0
0
0
0
0
0
0
0
0
0
0
0
0
0
0
0
0
0
0
0
0
0
0
0
0.00665858
0
0
0
0
0
0
0.000980268
0
0
0
0
0
0
0.00217843
0.000981009
0
0
0.00158105
0.00330147
0.0052734
0.00512375
0.00354779
0.00325916
0.00286927
0.00366125
0.00475165
0.00582301
0.00637122
0.00623738
0.00561368
0.00588151
0.00628956
0.00629346
0.00640562
0.0072168
0.0086065
0.00926276
0.00936235
0.00949278
0.0103144
0.011359
0.0117629
0.0120052
0.0129733
0.0145892
0.0160029
0.017988
0.026127
0.0369147
0.0315954
0.0238765
0.0378918
0.0617862
0.0798184
0.103719
0.138178
0.178459
0.26034
0.282247
0.377871
0.411159
0.47254
0.376186
0.399576
0.263996
0.353338
0.0943763
0.344458
0
0
0
0
0
0
0
0
0
0
0
0
0
0
0
0
0
0
0
0
0
0
0
0
0
0
0
0
0
0
0
0
0
0
0
0
0
0
0
0
0
0
0
0
0
0
0
0
0
0
0
0
0
0
0
0
0.163919
0.547557
0.53593
0.134575
0.0289979
0
0
0
0
0
0
0
0
0
0
0
0
0
0
0
0
0
0
0
0
0.496585
0
0.0647755
0.479201
0.156565
0
0
0.247621
0.206011
0
0
0.0141949
0.206265
0
0
0.266523
0
0
0.0910917
0.118028
0.067473
0.252839
0.128419
0.203465
0.151199
0.286597
0
0
0
0
0
0
0
0
0.0513823
0.261768
0
0
0
0
0
0.087943
0
0
0.0329564
0
0
0
0
0
0.131391
0.521292
0.549269
0.366441
0.169447
0.0144867
0.0100942
0.0146557
0.0120032
0.00942569
0.00853814
0.00829702
0.00854429
0.009976
0.0108979
0.00884959
0.00706265
0.00862919
0.0104626
0.00956249
0.00776904
0.00791302
0.0090381
0.00940352
0.00901936
0.00888574
0.0088196
0.00872421
0.00857825
0.00838696
0.00817177
0.00790827
0.00765286
0.007487
0.00731101
0.00721521
0.00707508
0.00694285
0.00683208
0.0066796
0.00652915
0.00638013
0.00609349
0.00593691
0.00574748
0.00552196
0.00538766
0.00525646
0.0050168
0.00475818
0.00451034
0.00424746
0.00410567
0.0038262
0.00370312
0.00354061
0.00366978
0.00343191
0.00330488
0.00294914
0.00355724
0.00395568
0.00329294
0.00346044
0.00434474
0.00280306
0.00353847
0.00400792
0.0021109
0.00344946
0.00204143
0.00101871
0.00183662
0.00243437
0.00842346
0.00342695
0
0.00424993
0.00849158
0.000334295
0
0.00211604
0.00824595
0.00203903
0.000378688
0
0.00468237
0.00137444
0.0189035
0.0538671
0.0466772
0.00114712
0
0
0
0
0.191165
0.0241196
0.100254
0.0642184
0
0
0.00600135
0
0
0.00252231
0.016829
0.0148034
0.0455801
0
0
0
0.000159589
0
0.0131029
0
0.0115004
0
0
0.00524968
0.0142942
0.00398405
0
0
0
0.0118809
0
0
0.0200464
0
0.00156291
0
0
0.0144083
0
0
0
0
0.00387878
0
0
0.00881301
0
0
0
0
0
0
0
0
0
0
0
0
0
0
0
0
0
0
0
0
0
0
0
0
0
0
0.00726409
0
0
0
0
0
0
0
0
0
0
0
0
0
0.000496317
0.000456695
0
0
0.000980408
0.00434787
0.00485097
0.00549549
0.0034156
0.00330217
0.00304804
0.00387006
0.00517486
0.00632831
0.00685921
0.00657112
0.00627529
0.00664742
0.0071658
0.00703327
0.00714282
0.00830924
0.0101745
0.0111334
0.0114395
0.0118145
0.0132244
0.0148477
0.0157285
0.0165503
0.0191125
0.0228017
0.0265108
0.0340259
0.0595057
0.0764137
0.0628308
0.073403
0.111985
0.183454
0.246698
0.28053
0.33528
0.370418
0.426709
0.393319
0.429494
0.412837
0.444964
0.373677
0.351876
0.25606
0.294562
0.0471015
0.266116
0
0
0
0
0
0
0
0
0
0
0
0
0
0
0
0
0
0
0
0
0
0
0
0
0
0
0
0
0
0
0
0
0
0
0
0
0
0
0
0
0
0
0
0
0
0
0
0
0
0
0
0
0
0
0
0
0.26993
0.259439
0.336508
0
0
0
0
0
0
0
0
0
0
0
0
0
0
0
0
0
0
0
0
0
0
0
0.174188
0
0
0.371208
0.121989
0
0
0
0.267666
0.0172889
0
0
0.184309
0
0
0
0
0
0.14484
0.292178
0.120739
0.158604
0.111184
0.272435
0.156938
0
0
0
0
0
0
0.0751089
0
0
0.0386058
0.256251
0
0
0
0
0
0
0
0.203416
0
0
0
0
0.0300922
0.306834
0.733787
0.693254
0.496122
0.252665
0.0172584
0.0160162
0.023981
0.018155
0.0126821
0.0105184
0.0098908
0.00976207
0.0111222
0.0119171
0.0095413
0.00750461
0.00908469
0.0110648
0.0101069
0.00821207
0.0083299
0.00941833
0.00984539
0.00942154
0.00910197
0.0090197
0.0089444
0.00876499
0.00866828
0.00854398
0.00828319
0.00799781
0.00781641
0.00763073
0.00744431
0.00726987
0.00712291
0.00694633
0.0067934
0.0066638
0.00661479
0.00643533
0.00627424
0.00606643
0.00579679
0.0055847
0.00540924
0.00513568
0.00492561
0.00473401
0.00449891
0.00433063
0.00412733
0.00390837
0.0037475
0.00372329
0.00363745
0.00347979
0.00316822
0.00361499
0.00408515
0.0034848
0.00401367
0.00427534
0.00311078
0.00432302
0.003906
0.00249992
0.00437244
0.00271812
0.0023981
0.00161332
0.00140817
0.00590236
0.00531127
0.000871208
0.00304482
0.00431389
0.00510646
0.00502043
0
0.00353048
0.00584776
0.00359468
0
0.00346937
0
0.00973048
0.0181699
0.252931
0.0109224
0.00172948
0
0
0
0.152258
0
0.0912947
0
0
0.0530029
0
0
0.0104121
0
0
0.00861419
0
0.123278
0.0460206
0
0.0403458
0
0.0981425
0.0149008
0
0.0210195
0.00277591
0
0.0204855
0
0
0.0157406
0.034826
0.00918181
0.00139467
0
0.0331762
0
0.0617239
0
0
0.022088
0
0
0
0
0
0.0164318
0
0.00487596
0
0
0
0
0
0
0
0
0
0
0
0
0
0
0
0
0
0
0
0
0
0
0
0
0
0
0.00518318
0
0
0
0
0
0
0
0
0
0
0
0
0
0
0
0
0
0
0.00431649
0.00415221
0.00491332
0.0039838
0.00319164
0.00370015
0.00426595
0.0059445
0.00717711
0.00769335
0.00763533
0.00728972
0.00801254
0.00861176
0.0085252
0.00884818
0.010654
0.0133931
0.0148278
0.0153335
0.0167903
0.0204782
0.0244356
0.0272075
0.0323336
0.0417069
0.0529435
0.0676295
0.0982148
0.188938
0.238994
0.194085
0.214312
0.289857
0.302702
0.370962
0.390716
0.402428
0.421634
0.461649
0.435749
0.435375
0.421993
0.449251
0.395791
0.367582
0.292216
0.263633
0.171356
0.265321
0
0
0
0
0
0
0
0
0
0
0
0
0
0
0
0
0
0
0
0
0
0
0
0
0
0
0
0
0
0
0
0
0
0
0
0
0
0
0
0
0
0
0
0
0
0
0
0
0
0
0
0
0
0
0
0
0.309312
0.484502
0.567502
0.138032
0.33903
0
0
0
0
0
0
0
0
0
0
0
0
0
0
0
0
0
0
0.491668
0
0
0
0.13607
0
0
0
0.0821132
0
0
0
0.30071
0.173394
0
0
0
0
0
0
0.0776321
0
0.176643
0.143278
0.178492
0.128039
0.202496
0.103441
0
0
0
0
0
0
0
0.115365
0.107096
0
0
0.169148
0
0
0.124693
0
0
0
0.321172
0
0
0
0
0
0.301789
0.936886
0.858677
0.644081
0.413426
0.0165904
0.0194614
0.0412779
0.0327414
0.0214464
0.0159453
0.0135476
0.01239
0.0133343
0.0140101
0.0110119
0.00845756
0.0100561
0.0119734
0.0108222
0.00869635
0.00874148
0.00986408
0.0102664
0.00986532
0.00964881
0.00949443
0.0093929
0.00924514
0.00899781
0.00877041
0.00852254
0.00825243
0.00803339
0.00781652
0.00770927
0.00753711
0.00739289
0.00728806
0.00714718
0.00698043
0.00680836
0.00651718
0.00636328
0.00618249
0.00597438
0.00586657
0.00571752
0.00548061
0.00522747
0.00498115
0.0046898
0.00445045
0.00425762
0.00403499
0.00390767
0.00391426
0.00384983
0.00370399
0.00347816
0.00376883
0.00417806
0.00378782
0.00428044
0.00424821
0.00355082
0.00441319
0.00388918
0.00327118
0.00437478
0.00307604
0.00429641
0.00196278
0.00224068
0.00373719
0.00360197
0.00519709
0.00418106
0.0021992
0.00491484
0.00704738
0.00247684
0.00341003
0.00304473
0.00538442
0
0.00290391
0
0.00471409
0.00523979
0.101397
0.0236601
0.00431038
0
0
0
0.0537049
0
0.0525576
0
0
0
0.00581439
0
0.00978631
0.0112258
0.0272669
0.0122449
0.013959
0
0
0
0.020014
0
0.0622426
0.0221254
0
0
0.00113124
0
0.00982056
0
0.00234151
0
0
0.00867765
0.0137096
0
0
0
0
0
0
0.0877122
0
0
0
0
0
0.00697452
0
0
0
0
0
0
0
0
0
0
0
0
0
0
0
0
0
0
0
0
0
0
0
0
0
0
0
0
0
0
0
0
0
0
0
0
0
0
0
0
0
0.000319873
0
0
0
0
0.00130957
0.00503422
0.00455679
0.0042321
0.00457088
0.00380656
0.00428047
0.00512131
0.00699987
0.00842342
0.00928481
0.009415
0.00935613
0.010573
0.0114527
0.0113582
0.0123878
0.0162245
0.0215923
0.0249296
0.02963
0.0351557
0.0489591
0.0532317
0.0705969
0.0972046
0.129213
0.156881
0.202899
0.249864
0.353371
0.365985
0.254772
0.251418
0.327043
0.331173
0.387735
0.394362
0.401731
0.407791
0.439119
0.404697
0.413079
0.419388
0.434044
0.375432
0.329229
0.278969
0.22754
0.120709
0.224832
0
0
0
0
0
0
0
0
0
0
0
0
0
0
0
0
0
0
0
0
0
0
0
0
0
0
0
0
0
0
0
0
0
0
0
0
0
0
0
0
0
0
0
0
0
0
0
0
0
0
0
0
0
0
0
0
0.276355
0.277828
0.44509
0.0423758
0
0
0
0
0
0
0
0
0
0
0
0
0
0
0
0
0
0
0
0.044281
0
0.320254
0
0
0.414879
0.275791
0.405593
0
0
0.0731351
0
0
0
0.276683
0
0
0
0
0
0.0160343
0.108404
0.175951
0.159042
0.12604
0.11293
0.189317
0.101157
0
0
0
0
0
0
0
0
0.150221
0
0
0
0
0
0
0.109791
0
0
0.281787
0
0
0
0
0
0.37904
0.981659
0.937548
0.760733
0.652757
0.0131539
0.0156925
0.0812419
0.0668192
0.0443362
0.0328332
0.0260149
0.0210429
0.0193084
0.0185602
0.0138489
0.0100517
0.0114665
0.0135603
0.0119095
0.00948769
0.00954878
0.0105168
0.0108911
0.0104559
0.0100025
0.00977443
0.00967318
0.00947885
0.00933029
0.00918609
0.0089237
0.00864042
0.00842514
0.00819678
0.00794186
0.0077296
0.00756224
0.00732082
0.00714702
0.00702128
0.00700061
0.00687936
0.0067109
0.00648912
0.00621964
0.00598976
0.00577929
0.00550498
0.00530217
0.00515529
0.0049313
0.00470859
0.00455802
0.00423433
0.00407482
0.00396347
0.00398847
0.00386085
0.00360102
0.00371787
0.00420556
0.00397687
0.00448389
0.00439262
0.00416639
0.00445449
0.00422192
0.00416504
0.00442659
0.00352
0.00470416
0.00316435
0.00384472
0.00266402
0.00275878
0.00549955
0.0051537
0.00270819
0.00410587
0.00592098
0.00479302
0.00467215
0.00234575
0.00477148
0.000171271
0.00312315
0
0.001525
0.0032252
0.0353614
0.0816788
0.00899824
0
0
0
0
0
0.0280906
0
0
0.0153384
0