/*--------------------------------*- C++ -*----------------------------------*\
| =========                 |                                                 |
| \\      /  F ield         | OpenFOAM: The Open Source CFD Toolbox           |
|  \\    /   O peration     | Version:  v2006                                 |
|   \\  /    A nd           | Website:  www.openfoam.com                      |
|    \\/     M anipulation  |                                                 |
\*---------------------------------------------------------------------------*/
FoamFile
{
    version     2.0;
    format      ascii;
    class       volScalarField;
    location    "100";
    object      nut;
}
// * * * * * * * * * * * * * * * * * * * * * * * * * * * * * * * * * * * * * //

dimensions      [0 2 -1 0 0 0 0];


internalField   nonuniform List<scalar> 
93840
(
2.80299e-08
2.87948e-08
2.79503e-08
2.85098e-08
2.80596e-08
2.87175e-08
2.83367e-08
2.85191e-08
2.86752e-08
2.83085e-08
2.84988e-08
2.90399e-08
2.8481e-08
2.8739e-08
2.68953e-08
2.50388e-08
3.0666e-08
3.53243e-08
2.80471e-08
1.18498e-06
6.89747e-06
2.21181e-05
4.13194e-05
4.49806e-05
3.79998e-05
3.34153e-05
2.64998e-05
2.14038e-05
1.87375e-05
1.62394e-05
1.48043e-05
1.31485e-05
1.35207e-05
1.28963e-05
1.29753e-05
1.27813e-05
1.26693e-05
1.25977e-05
1.24462e-05
1.24039e-05
1.22698e-05
1.22358e-05
1.21168e-05
1.20752e-05
1.19658e-05
1.19104e-05
1.18105e-05
1.17603e-05
1.16733e-05
1.16115e-05
1.15366e-05
1.1484e-05
1.13976e-05
1.13256e-05
1.12937e-05
1.12912e-05
1.12421e-05
1.11885e-05
1.11046e-05
1.10574e-05
1.10337e-05
1.0975e-05
1.09199e-05
1.09064e-05
1.08838e-05
1.08494e-05
1.08427e-05
1.08452e-05
1.08374e-05
1.0835e-05
1.08469e-05
1.0839e-05
1.08452e-05
1.08443e-05
1.08418e-05
1.08482e-05
1.08786e-05
1.09121e-05
1.09672e-05
1.09912e-05
1.09955e-05
1.09922e-05
1.10229e-05
1.11025e-05
1.11966e-05
1.12457e-05
1.12663e-05
1.12915e-05
1.13807e-05
1.15044e-05
1.16006e-05
1.16527e-05
1.1746e-05
1.19224e-05
1.20699e-05
1.21582e-05
1.22758e-05
1.24759e-05
1.26441e-05
1.27585e-05
1.29371e-05
1.31655e-05
1.3321e-05
1.36462e-05
1.40454e-05
1.41338e-05
1.41785e-05
1.44884e-05
1.47728e-05
1.50413e-05
1.53559e-05
1.56361e-05
1.59133e-05
1.62809e-05
1.65801e-05
1.69128e-05
1.72002e-05
1.75467e-05
1.78155e-05
1.81101e-05
1.83167e-05
1.85812e-05
1.86907e-05
1.88839e-05
1.88674e-05
1.88566e-05
1.893e-05
1.87441e-05
1.87993e-05
1.87043e-05
1.8569e-05
1.85074e-05
1.83557e-05
1.83251e-05
1.82124e-05
1.8125e-05
1.79973e-05
1.79383e-05
1.78416e-05
1.78009e-05
1.7731e-05
1.76726e-05
1.75628e-05
1.75154e-05
1.74435e-05
1.73975e-05
1.7331e-05
1.72799e-05
1.71852e-05
1.71004e-05
1.70076e-05
1.69195e-05
1.68071e-05
1.66957e-05
1.65597e-05
1.64216e-05
1.62576e-05
1.6087e-05
1.58951e-05
1.5716e-05
1.55411e-05
1.53441e-05
1.50931e-05
1.48348e-05
1.45522e-05
1.42121e-05
1.37399e-05
1.30342e-05
1.18862e-05
1.03595e-05
9.66904e-06
1.04696e-05
8.59703e-06
2.47488e-06
4.4724e-08
4.21737e-06
3.71271e-06
7.81386e-09
1.53574e-08
4.78755e-07
3.68115e-07
4.26759e-08
2.54097e-07
8.45794e-08
8.09952e-08
1.80311e-07
9.69944e-08
3.9152e-10
6.5663e-06
1.11239e-05
2.05628e-06
5.39754e-06
1.87553e-05
2.20202e-05
1.98171e-05
2.22631e-05
2.58891e-05
2.84525e-05
2.93821e-05
2.99615e-05
3.00125e-05
2.99412e-05
2.98497e-05
2.97713e-05
2.96791e-05
2.95501e-05
2.94147e-05
2.93032e-05
2.91559e-05
2.90209e-05
2.88809e-05
2.87447e-05
2.85946e-05
2.84656e-05
2.8309e-05
2.81565e-05
2.79804e-05
2.78508e-05
2.76922e-05
2.76008e-05
2.74803e-05
2.74992e-05
2.7342e-05
2.71941e-05
2.69887e-05
2.68254e-05
2.66274e-05
2.64747e-05
2.62737e-05
2.60988e-05
2.59995e-05
2.60723e-05
2.59838e-05
2.60393e-05
2.59581e-05
2.58962e-05
2.57967e-05
2.57294e-05
2.56074e-05
2.55441e-05
2.54524e-05
2.53885e-05
2.53337e-05
2.53189e-05
2.52603e-05
2.52503e-05
2.51401e-05
2.53208e-05
2.51082e-05
2.5092e-05
2.53545e-05
2.51583e-05
2.54482e-05
2.49125e-05
2.43189e-05
2.19801e-05
1.6854e-05
1.32659e-05
1.27834e-05
1.30393e-05
1.32538e-05
1.32741e-05
1.33096e-05
1.32777e-05
1.32393e-05
1.31206e-05
1.30222e-05
1.28101e-05
1.24612e-05
1.21221e-05
1.20604e-05
1.19636e-05
1.16492e-05
1.12526e-05
1.10823e-05
1.09637e-05
1.07401e-05
1.04284e-05
1.01642e-05
9.90753e-06
9.64326e-06
9.38483e-06
9.1122e-06
8.83984e-06
8.57059e-06
8.31604e-06
8.0662e-06
7.82821e-06
7.59328e-06
7.3608e-06
7.1298e-06
6.90526e-06
6.6837e-06
6.46983e-06
6.25777e-06
6.04935e-06
5.84837e-06
5.64965e-06
5.46001e-06
5.2767e-06
5.10906e-06
4.93819e-06
4.77869e-06
4.59892e-06
4.4398e-06
4.2574e-06
4.1165e-06
3.93089e-06
3.8007e-06
3.60658e-06
3.48448e-06
3.28058e-06
3.17806e-06
2.98258e-06
2.90208e-06
2.72615e-06
2.65779e-06
2.51943e-06
2.46471e-06
2.39847e-06
2.35208e-06
2.34779e-06
2.2958e-06
2.3208e-06
2.2651e-06
2.30808e-06
2.25609e-06
2.3265e-06
2.2737e-06
2.38343e-06
2.34728e-06
2.5572e-06
2.63539e-06
2.87957e-06
3.86413e-06
3.61595e-06
9.12364e-06
1.5249e-05
1.92497e-05
2.31192e-05
2.46812e-05
2.63659e-05
3.00231e-05
3.48013e-05
4.44929e-05
4.42001e-05
2.58138e-05
8.66325e-06
1.95212e-06
9.51029e-08
2.19199e-08
4.2528e-08
3.78497e-08
2.89819e-08
2.86846e-08
2.85708e-08
2.89962e-08
2.83857e-08
2.83436e-08
2.8759e-08
2.84832e-08
2.83022e-08
2.87079e-08
2.80378e-08
2.84722e-08
2.78539e-08
2.87193e-08
2.79259e-08
2.78712e-08
2.87398e-08
2.78253e-08
2.84635e-08
2.79499e-08
2.87581e-08
2.82877e-08
2.85268e-08
2.88397e-08
2.82857e-08
2.83931e-08
2.89066e-08
2.85557e-08
2.88686e-08
2.87436e-08
2.52308e-08
1.82645e-08
2.31933e-08
6.03215e-08
4.74053e-07
4.59458e-06
1.75291e-05
3.67531e-05
4.42209e-05
4.07015e-05
3.89777e-05
3.41027e-05
2.88405e-05
2.50289e-05
2.12237e-05
1.91059e-05
1.73598e-05
1.67632e-05
1.63762e-05
1.71359e-05
1.60824e-05
1.72441e-05
1.60222e-05
1.72325e-05
1.60432e-05
1.71672e-05
1.6099e-05
1.71118e-05
1.61817e-05
1.70651e-05
1.62728e-05
1.70188e-05
1.63523e-05
1.69915e-05
1.64493e-05
1.69818e-05
1.6551e-05
1.70171e-05
1.66548e-05
1.70257e-05
1.67845e-05
1.71777e-05
1.70082e-05
1.7322e-05
1.71566e-05
1.74155e-05
1.73156e-05
1.74905e-05
1.73675e-05
1.75432e-05
1.74781e-05
1.76281e-05
1.76377e-05
1.783e-05
1.78724e-05
1.80261e-05
1.803e-05
1.80611e-05
1.79915e-05
1.79905e-05
1.79777e-05
1.81114e-05
1.82566e-05
1.84051e-05
1.84008e-05
1.82807e-05
1.81066e-05
1.81176e-05
1.83301e-05
1.85988e-05
1.85865e-05
1.83162e-05
1.81523e-05
1.83916e-05
1.87739e-05
1.87572e-05
1.84152e-05
1.83796e-05
1.88139e-05
1.89969e-05
1.86666e-05
1.85748e-05
1.89973e-05
1.91305e-05
1.87701e-05
1.88319e-05
1.92551e-05
1.90594e-05
1.89029e-05
1.93691e-05
1.93797e-05
1.91183e-05
1.94053e-05
1.93737e-05
1.91987e-05
1.94062e-05
1.93261e-05
1.92128e-05
1.93399e-05
1.91767e-05
1.92036e-05
1.91267e-05
1.90626e-05
1.89627e-05
1.89112e-05
1.87305e-05
1.86707e-05
1.84508e-05
1.83586e-05
1.81221e-05
1.80056e-05
1.77785e-05
1.76195e-05
1.74247e-05
1.72172e-05
1.7033e-05
1.68345e-05
1.66429e-05
1.64534e-05
1.62432e-05
1.60602e-05
1.58558e-05
1.56813e-05
1.54746e-05
1.52986e-05
1.50813e-05
1.48999e-05
1.46904e-05
1.45129e-05
1.42944e-05
1.40977e-05
1.38646e-05
1.36471e-05
1.33986e-05
1.31694e-05
1.29003e-05
1.26337e-05
1.2328e-05
1.2006e-05
1.16177e-05
1.11757e-05
1.06538e-05
1.0111e-05
9.57774e-06
9.07964e-06
8.48063e-06
7.64412e-06
6.579e-06
5.65005e-06
5.16839e-06
4.88393e-06
4.06746e-06
2.53683e-06
7.66963e-07
1.27734e-07
7.4981e-07
1.3219e-06
5.15417e-07
3.20554e-07
5.23553e-13
1.91978e-09
2.50524e-09
4.45461e-08
9.37328e-08
2.80254e-08
1.12719e-09
1.06782e-07
7.62101e-09
6.96125e-08
9.33668e-08
6.64541e-08
6.90439e-08
1.09252e-08
1.3104e-07
4.17686e-08
1.25198e-07
5.35998e-07
1.99057e-06
2.77403e-06
2.28647e-06
1.76012e-06
3.4934e-06
6.65863e-06
9.32397e-06
1.10239e-05
1.219e-05
1.36142e-05
1.51608e-05
1.65786e-05
1.76954e-05
1.8659e-05
1.94574e-05
2.01454e-05
2.06807e-05
2.11547e-05
2.15103e-05
2.18503e-05
2.21161e-05
2.23812e-05
2.25725e-05
2.27972e-05
2.29529e-05
2.31472e-05
2.32863e-05
2.34649e-05
2.35868e-05
2.37575e-05
2.38909e-05
2.40653e-05
2.41815e-05
2.4343e-05
2.44446e-05
2.4593e-05
2.46896e-05
2.48269e-05
2.49038e-05
2.50136e-05
2.51095e-05
2.5262e-05
2.53215e-05
2.55709e-05
2.55445e-05
2.5865e-05
2.57946e-05
2.60603e-05
2.61155e-05
2.6196e-05
2.63679e-05
2.64252e-05
2.64702e-05
2.67406e-05
2.66243e-05
2.68835e-05
2.68794e-05
2.71893e-05
2.69532e-05
2.72623e-05
2.78277e-05
2.63917e-05
2.67171e-05
2.69589e-05
2.59352e-05
2.89547e-05
3.1893e-05
3.22504e-05
3.13931e-05
3.02099e-05
2.93798e-05
2.85091e-05
2.78297e-05
2.70579e-05
2.64239e-05
2.55599e-05
2.49102e-05
2.4367e-05
2.396e-05
2.34658e-05
2.29318e-05
2.24933e-05
2.22838e-05
2.19894e-05
2.15853e-05
2.12165e-05
2.09795e-05
2.06592e-05
2.03288e-05
2.00549e-05
1.97644e-05
1.94476e-05
1.92171e-05
1.90319e-05
1.88327e-05
1.86535e-05
1.85e-05
1.83522e-05
1.81979e-05
1.80616e-05
1.79242e-05
1.78173e-05
1.76821e-05
1.75798e-05
1.74463e-05
1.73645e-05
1.72292e-05
1.71738e-05
1.70367e-05
1.69943e-05
1.68315e-05
1.67979e-05
1.66306e-05
1.66355e-05
1.6462e-05
1.64864e-05
1.62789e-05
1.63148e-05
1.60776e-05
1.61392e-05
1.58923e-05
1.59902e-05
1.57219e-05
1.58322e-05
1.55379e-05
1.56678e-05
1.53724e-05
1.55431e-05
1.52412e-05
1.54358e-05
1.51036e-05
1.53223e-05
1.49652e-05
1.52378e-05
1.48502e-05
1.52039e-05
1.47647e-05
1.52025e-05
1.47665e-05
1.53129e-05
1.51006e-05
1.58409e-05
1.68039e-05
1.88429e-05
2.38245e-05
2.76639e-05
3.28928e-05
3.75773e-05
3.8863e-05
3.95967e-05
3.722e-05
3.45961e-05
4.36096e-05
4.61617e-05
2.92754e-05
1.07785e-05
2.59108e-06
3.16192e-07
3.63723e-08
2.01738e-08
2.8558e-08
3.08326e-08
2.93244e-08
2.84357e-08
2.9076e-08
2.8491e-08
2.82623e-08
2.87049e-08
2.84933e-08
2.83971e-08
2.86899e-08
2.80275e-08
2.85308e-08
2.79367e-08
2.88256e-08
2.79747e-08
2.80192e-08
2.87972e-08
2.78907e-08
2.85e-08
2.80354e-08
2.87224e-08
2.83273e-08
2.84809e-08
2.8726e-08
2.83745e-08
2.84066e-08
2.90606e-08
2.85173e-08
2.89521e-08
2.98244e-08
3.71912e-08
4.85869e-08
3.81086e-08
3.32881e-08
1.52441e-07
2.70927e-06
1.23846e-05
3.04725e-05
4.14722e-05
4.09975e-05
4.13016e-05
3.91155e-05
3.6086e-05
3.37645e-05
3.11126e-05
2.94773e-05
2.80998e-05
2.76087e-05
2.71746e-05
2.72644e-05
2.69548e-05
2.71551e-05
2.69225e-05
2.71297e-05
2.69424e-05
2.71546e-05
2.6997e-05
2.72282e-05
2.70791e-05
2.73296e-05
2.71752e-05
2.74395e-05
2.72891e-05
2.75845e-05
2.74477e-05
2.77695e-05
2.76625e-05
2.80179e-05
2.79275e-05
2.83284e-05
2.83489e-05
2.88237e-05
2.88438e-05
2.92374e-05
2.92134e-05
2.95566e-05
2.95036e-05
2.9711e-05
2.96134e-05
2.98458e-05
2.98156e-05
3.01058e-05
3.02477e-05
3.06402e-05
3.08061e-05
3.10649e-05
3.09913e-05
3.08927e-05
3.05922e-05
3.04379e-05
3.03773e-05
3.0679e-05
3.10179e-05
3.12336e-05
3.09558e-05
3.03259e-05
2.96795e-05
2.96482e-05
3.01679e-05
3.06493e-05
3.02214e-05
2.91746e-05
2.8618e-05
2.92046e-05
2.99334e-05
2.94275e-05
2.8229e-05
2.80779e-05
2.90027e-05
2.89979e-05
2.77823e-05
2.74605e-05
2.82817e-05
2.81204e-05
2.69017e-05
2.69417e-05
2.75954e-05
2.66933e-05
2.61544e-05
2.69738e-05
2.65164e-05
2.56816e-05
2.60926e-05
2.55693e-05
2.48746e-05
2.50599e-05
2.44631e-05
2.39258e-05
2.38887e-05
2.31817e-05
2.29676e-05
2.25061e-05
2.20831e-05
2.16542e-05
2.13116e-05
2.07544e-05
2.04784e-05
1.99242e-05
1.96428e-05
1.91451e-05
1.8843e-05
1.83826e-05
1.80679e-05
1.76164e-05
1.727e-05
1.68511e-05
1.6482e-05
1.60713e-05
1.56779e-05
1.52538e-05
1.48652e-05
1.44348e-05
1.40384e-05
1.35897e-05
1.31689e-05
1.27022e-05
1.22742e-05
1.18109e-05
1.13656e-05
1.08665e-05
1.03632e-05
9.80436e-06
9.2314e-06
8.60168e-06
7.953e-06
7.24065e-06
6.53e-06
5.79807e-06
5.08643e-06
4.35817e-06
3.6216e-06
2.84725e-06
2.15481e-06
1.71291e-06
1.52438e-06
1.22711e-06
6.1593e-07
1.60815e-07
8.49523e-08
6.66088e-08
3.54518e-08
3.10753e-08
4.72749e-08
6.29915e-08
7.761e-08
4.55307e-08
2.99842e-08
8.43956e-08
1.64789e-07
1.03352e-07
9.21053e-08
6.84776e-08
5.51794e-08
3.85598e-08
5.79378e-08
1.43957e-07
5.79691e-08
6.22471e-08
3.64279e-08
2.18569e-08
5.19342e-08
3.8231e-08
5.5485e-08
3.21653e-08
4.75497e-08
4.98648e-08
6.27461e-08
3.4628e-08
4.57066e-08
7.8172e-08
1.50384e-08
1.79368e-09
1.73013e-07
6.8497e-07
7.05921e-07
7.62517e-07
1.59174e-06
2.50619e-06
3.29868e-06
4.15447e-06
5.21206e-06
6.27628e-06
7.35447e-06
8.43839e-06
9.62567e-06
1.08052e-05
1.20207e-05
1.31921e-05
1.43041e-05
1.52696e-05
1.6204e-05
1.70075e-05
1.78021e-05
1.84872e-05
1.9176e-05
1.97863e-05
2.04006e-05
2.09457e-05
2.15309e-05
2.20327e-05
2.25882e-05
2.30751e-05
2.3606e-05
2.40898e-05
2.45864e-05
2.50619e-05
2.55077e-05
2.59342e-05
2.64571e-05
2.67123e-05
2.74416e-05
2.74717e-05
2.83532e-05
2.83121e-05
2.90113e-05
2.93403e-05
2.95645e-05
3.0165e-05
3.03725e-05
3.05893e-05
3.13172e-05
3.11505e-05
3.18708e-05
3.18539e-05
3.27071e-05
3.24114e-05
3.2715e-05
3.44746e-05
3.19952e-05
3.33388e-05
3.57607e-05
3.34979e-05
3.84501e-05
4.49162e-05
4.78213e-05
4.81212e-05
4.71417e-05
4.66223e-05
4.57686e-05
4.51575e-05
4.41144e-05
4.32921e-05
4.18012e-05
4.07133e-05
3.97516e-05
3.91925e-05
3.85088e-05
3.76944e-05
3.68921e-05
3.67019e-05
3.64306e-05
3.58859e-05
3.52988e-05
3.50523e-05
3.46364e-05
3.41496e-05
3.38183e-05
3.34518e-05
3.29989e-05
3.27392e-05
3.26215e-05
3.24742e-05
3.23648e-05
3.23291e-05
3.2311e-05
3.22624e-05
3.22446e-05
3.22303e-05
3.22612e-05
3.22455e-05
3.22712e-05
3.22447e-05
3.22876e-05
3.22566e-05
3.23261e-05
3.22953e-05
3.23756e-05
3.22992e-05
3.23507e-05
3.22395e-05
3.23196e-05
3.22071e-05
3.2285e-05
3.21081e-05
3.2141e-05
3.18913e-05
3.19049e-05
3.16347e-05
3.1663e-05
3.1377e-05
3.13981e-05
3.10762e-05
3.10997e-05
3.07861e-05
3.08583e-05
3.05776e-05
3.06857e-05
3.04051e-05
3.05347e-05
3.02606e-05
3.04336e-05
3.01955e-05
3.04358e-05
3.02591e-05
3.05891e-05
3.05089e-05
3.10227e-05
3.11894e-05
3.18902e-05
3.24373e-05
3.38276e-05
3.32862e-05
3.5119e-05
4.14144e-05
4.71265e-05
5.02108e-05
5.31595e-05
5.07024e-05
4.36066e-05
4.64256e-05
4.76129e-05
3.1638e-05
1.23605e-05
3.15912e-06
3.69475e-07
8.23676e-08
3.35996e-08
2.29251e-08
2.62496e-08
2.88505e-08
2.87773e-08
2.90285e-08
2.83632e-08
2.82929e-08
2.88557e-08
2.85177e-08
2.82764e-08
2.87071e-08
2.80163e-08
2.85084e-08
2.79067e-08
2.87213e-08
2.79869e-08
2.79093e-08
2.869e-08
2.78317e-08
2.84757e-08
2.80057e-08
2.87252e-08
2.82907e-08
2.84804e-08
2.87725e-08
2.82847e-08
2.8385e-08
2.89336e-08
2.84134e-08
2.8665e-08
2.75882e-08
2.83319e-08
4.04798e-08
7.82878e-08
7.07404e-08
2.1113e-07
1.65266e-06
8.11327e-06
2.40523e-05
3.80013e-05
4.06005e-05
4.19733e-05
4.13666e-05
3.95674e-05
3.83363e-05
3.67626e-05
3.58019e-05
3.49457e-05
3.45585e-05
3.42232e-05
3.41469e-05
3.40002e-05
3.40502e-05
3.39779e-05
3.40858e-05
3.40415e-05
3.4183e-05
3.41535e-05
3.43234e-05
3.43034e-05
3.44966e-05
3.44854e-05
3.47015e-05
3.4709e-05
3.49645e-05
3.5004e-05
3.53087e-05
3.53921e-05
3.57602e-05
3.58892e-05
3.6331e-05
3.65344e-05
3.70339e-05
3.72153e-05
3.76332e-05
3.7728e-05
3.80486e-05
3.80491e-05
3.82459e-05
3.82021e-05
3.84499e-05
3.85276e-05
3.89235e-05
3.92118e-05
3.9713e-05
3.99459e-05
4.01566e-05
3.99445e-05
3.96438e-05
3.91519e-05
3.89033e-05
3.88974e-05
3.93523e-05
3.97806e-05
3.98584e-05
3.91843e-05
3.80853e-05
3.71774e-05
3.72671e-05
3.80329e-05
3.84494e-05
3.74526e-05
3.57984e-05
3.51618e-05
3.61345e-05
3.6908e-05
3.57573e-05
3.39648e-05
3.39623e-05
3.52004e-05
3.47481e-05
3.28337e-05
3.25462e-05
3.3621e-05
3.29685e-05
3.11301e-05
3.13273e-05
3.20085e-05
3.04539e-05
2.97644e-05
3.07335e-05
2.97151e-05
2.85802e-05
2.90924e-05
2.80463e-05
2.70139e-05
2.71672e-05
2.60883e-05
2.52891e-05
2.5102e-05
2.39594e-05
2.35958e-05
2.28342e-05
2.2155e-05
2.14997e-05
2.09415e-05
2.01223e-05
1.96965e-05
1.88929e-05
1.84714e-05
1.77634e-05
1.73176e-05
1.66861e-05
1.62105e-05
1.5599e-05
1.509e-05
1.44823e-05
1.3969e-05
1.33546e-05
1.28047e-05
1.21689e-05
1.16105e-05
1.09683e-05
1.03864e-05
9.69743e-06
9.03434e-06
8.27852e-06
7.55157e-06
6.76856e-06
6.011e-06
5.20867e-06
4.43576e-06
3.67989e-06
3.00646e-06
2.38404e-06
1.8175e-06
1.29158e-06
8.76734e-07
5.42607e-07
3.07718e-07
1.52213e-07
1.00166e-07
5.70265e-08
3.47801e-08
3.19035e-08
3.64047e-08
3.27246e-08
2.89383e-08
3.41569e-08
3.87961e-08
4.35783e-08
4.61162e-08
3.66372e-08
2.81017e-08
2.88681e-08
3.25256e-08
2.70237e-08
3.32546e-08
1.8121e-08
1.53558e-08
1.74454e-08
3.2224e-08
3.48172e-08
4.00461e-08
4.86133e-08
3.97592e-08
1.22272e-08
6.30987e-08
3.04758e-08
6.8209e-08
1.05143e-07
6.08439e-08
3.53079e-08
4.95929e-08
3.01395e-08
2.87106e-08
1.76352e-08
2.07323e-08
1.33441e-08
1.93966e-08
2.19687e-08
2.45434e-08
1.39992e-08
2.11045e-08
2.67897e-08
1.55685e-08
1.20153e-08
2.09554e-08
2.76915e-08
2.99178e-08
4.47003e-08
1.0154e-07
1.86953e-07
3.69063e-07
6.41931e-07
1.12443e-06
1.71536e-06
2.41003e-06
3.22297e-06
4.16391e-06
5.08719e-06
6.17483e-06
7.2691e-06
8.52281e-06
9.72466e-06
1.09962e-05
1.22081e-05
1.34091e-05
1.44696e-05
1.55347e-05
1.64454e-05
1.73859e-05
1.82312e-05
1.91046e-05
1.99313e-05
2.07466e-05
2.15632e-05
2.23409e-05
2.30799e-05
2.39845e-05
2.44274e-05
2.56037e-05
2.56973e-05
2.70441e-05
2.70716e-05
2.807e-05
2.86882e-05
2.90049e-05
2.99561e-05
3.03465e-05
3.0661e-05
3.18177e-05
3.16104e-05
3.27132e-05
3.27717e-05
3.39276e-05
3.3833e-05
3.39265e-05
3.66252e-05
3.40647e-05
3.62469e-05
4.03018e-05
3.73968e-05
4.2287e-05
5.06004e-05
5.53969e-05
5.68292e-05
5.62317e-05
5.61525e-05
5.55762e-05
5.52888e-05
5.42942e-05
5.3564e-05
5.18419e-05
5.06307e-05
4.94566e-05
4.87328e-05
4.79533e-05
4.71463e-05
4.61915e-05
4.59568e-05
4.57202e-05
4.52055e-05
4.45475e-05
4.43353e-05
4.39425e-05
4.33908e-05
4.30455e-05
4.26944e-05
4.21958e-05
4.19238e-05
4.18848e-05
4.1827e-05
4.18105e-05
4.19023e-05
4.20389e-05
4.21366e-05
4.22665e-05
4.24107e-05
4.26112e-05
4.27639e-05
4.29575e-05
4.30976e-05
4.33071e-05
4.34487e-05
4.3685e-05
4.38308e-05
4.40723e-05
4.41711e-05
4.43671e-05
4.44161e-05
4.46173e-05
4.46566e-05
4.48326e-05
4.479e-05
4.4878e-05
4.47303e-05
4.47496e-05
4.45558e-05
4.45538e-05
4.43336e-05
4.43024e-05
4.40457e-05
4.39973e-05
4.37522e-05
4.3738e-05
4.35371e-05
4.35527e-05
4.33673e-05
4.33974e-05
4.32327e-05
4.33001e-05
4.31874e-05
4.33191e-05
4.32901e-05
4.35175e-05
4.36059e-05
4.40141e-05
4.43346e-05
4.50256e-05
4.57132e-05
4.72277e-05
4.76291e-05
4.76191e-05
4.91744e-05
5.34359e-05
5.72157e-05
6.14831e-05
6.09208e-05
5.62406e-05
5.40684e-05
4.9675e-05
3.33715e-05
1.32326e-05
3.30091e-06
3.27498e-07
3.85421e-08
4.65461e-08
3.76777e-08
2.87741e-08
2.84139e-08
2.85015e-08
2.9071e-08
2.84927e-08
2.83143e-08
2.86945e-08
2.8505e-08
2.83801e-08
2.87015e-08
2.80656e-08
2.85479e-08
2.78936e-08
2.87977e-08
2.79727e-08
2.79883e-08
2.87483e-08
2.79691e-08
2.84996e-08
2.80476e-08
2.86866e-08
2.83433e-08
2.85034e-08
2.85929e-08
2.8381e-08
2.85017e-08
2.90897e-08
2.85275e-08
2.86627e-08
2.78772e-08
2.38682e-08
1.41349e-08
1.61874e-08
3.2757e-08
4.91319e-08
4.77482e-07
4.57867e-06
1.72919e-05
3.3368e-05
3.95648e-05
4.18852e-05
4.25939e-05
4.20605e-05
4.15343e-05
4.0747e-05
4.027e-05
3.97965e-05
3.95973e-05
3.93706e-05
3.93424e-05
3.92539e-05
3.93132e-05
3.93048e-05
3.94082e-05
3.94436e-05
3.95744e-05
3.96349e-05
3.97917e-05
3.98712e-05
4.00595e-05
4.01601e-05
4.03881e-05
4.05235e-05
4.08075e-05
4.09943e-05
4.1348e-05
4.15967e-05
4.2026e-05
4.23306e-05
4.28287e-05
4.3174e-05
4.36886e-05
4.39772e-05
4.43825e-05
4.45419e-05
4.48139e-05
4.48537e-05
4.50334e-05
4.50687e-05
4.53564e-05
4.55803e-05
4.60839e-05
4.65096e-05
4.70454e-05
4.7258e-05
4.73092e-05
4.68956e-05
4.63654e-05
4.57378e-05
4.54769e-05
4.56047e-05
4.61879e-05
4.65768e-05
4.63332e-05
4.5167e-05
4.3653e-05
4.26654e-05
4.30018e-05
4.39223e-05
4.40158e-05
4.2311e-05
4.01935e-05
3.97331e-05
4.10971e-05
4.16242e-05
3.96728e-05
3.74879e-05
3.78406e-05
3.92194e-05
3.80676e-05
3.55748e-05
3.55343e-05
3.67205e-05
3.53706e-05
3.30709e-05
3.35667e-05
3.40752e-05
3.1837e-05
3.116e-05
3.21477e-05
3.04724e-05
2.92118e-05
2.97792e-05
2.81333e-05
2.68855e-05
2.69857e-05
2.54011e-05
2.44455e-05
2.40909e-05
2.25565e-05
2.21026e-05
2.10637e-05
2.01774e-05
1.93462e-05
1.8593e-05
1.75647e-05
1.7004e-05
1.59848e-05
1.54317e-05
1.4532e-05
1.39492e-05
1.31628e-05
1.2519e-05
1.17755e-05
1.10797e-05
1.03012e-05
9.62052e-06
8.77397e-06
8.01673e-06
7.08866e-06
6.29752e-06
5.37725e-06
4.63355e-06
3.77697e-06
3.09151e-06
2.35554e-06
1.8082e-06
1.24865e-06
8.6138e-07
4.82732e-07
2.91489e-07
1.54206e-07
1.00052e-07
7.23156e-08
5.92959e-08
3.97424e-08
4.50608e-08
3.83414e-08
4.41199e-08
3.25537e-08
4.43921e-08
3.27275e-08
4.29665e-08
4.13307e-08
5.02542e-08
4.49844e-08
5.7045e-08
3.98059e-08
4.60398e-08
3.70235e-08
4.59422e-08
5.07115e-08
5.36849e-08
4.91534e-08
5.43689e-08
5.92656e-08
7.13805e-08
7.4356e-08
8.81374e-08
7.92829e-08
5.83422e-08
6.31234e-08
4.97189e-08
5.88857e-08
6.09841e-08
8.12131e-08
5.72091e-08
3.67553e-08
5.0281e-08
5.34298e-08
4.27953e-08
3.87563e-08
3.90605e-08
2.8539e-08
4.18729e-08
3.15129e-08
3.58985e-08
2.10183e-08
2.20521e-08
1.47679e-08
1.65342e-08
1.32644e-08
1.67459e-08
1.67442e-08
1.76198e-08
1.70195e-08
1.98369e-08
1.94348e-08
2.0984e-08
2.17538e-08
2.63703e-08
2.28815e-08
3.04602e-08
2.33562e-08
2.91808e-08
3.18353e-08
4.12517e-08
5.68312e-08
1.28074e-07
1.68e-07
3.88881e-07
5.87703e-07
1.15061e-06
1.69175e-06
2.4586e-06
3.24121e-06
4.25059e-06
5.28209e-06
6.47231e-06
7.57504e-06
8.83023e-06
1.00637e-05
1.13602e-05
1.2625e-05
1.38446e-05
1.50563e-05
1.62086e-05
1.72619e-05
1.85683e-05
1.92004e-05
2.08346e-05
2.10169e-05
2.27968e-05
2.29612e-05
2.41852e-05
2.51493e-05
2.55387e-05
2.68158e-05
2.74313e-05
2.78149e-05
2.93847e-05
2.92169e-05
3.05838e-05
3.08833e-05
3.21608e-05
3.24479e-05
3.22874e-05
3.56699e-05
3.35602e-05
3.62985e-05
4.1772e-05
3.85498e-05
4.27675e-05
5.21094e-05
5.84041e-05
6.09536e-05
6.08259e-05
6.12872e-05
6.11821e-05
6.14392e-05
6.07293e-05
6.03176e-05
5.86079e-05
5.74484e-05
5.62264e-05
5.53873e-05
5.45413e-05
5.38704e-05
5.29062e-05
5.26354e-05
5.24506e-05
5.20603e-05
5.14118e-05
5.12634e-05
5.09861e-05
5.04428e-05
5.01034e-05
4.98242e-05
4.93446e-05
4.90691e-05
4.91082e-05
4.91703e-05
4.92695e-05
4.94981e-05
4.98089e-05
5.0084e-05
5.03876e-05
5.07115e-05
5.11039e-05
5.14536e-05
5.18415e-05
5.21763e-05
5.25785e-05
5.29216e-05
5.33498e-05
5.36991e-05
5.41322e-05
5.44395e-05
5.48205e-05
5.50688e-05
5.54329e-05
5.56573e-05
5.59771e-05
5.61044e-05
5.63076e-05
5.62997e-05
5.63896e-05
5.62972e-05
5.63276e-05
5.61835e-05
5.61622e-05
5.59719e-05
5.59187e-05
5.57312e-05
5.56956e-05
5.55446e-05
5.55351e-05
5.54027e-05
5.54033e-05
5.52925e-05
5.53226e-05
5.5259e-05
5.53468e-05
5.53566e-05
5.5531e-05
5.56399e-05
5.59693e-05
5.6273e-05
5.6871e-05
5.74529e-05
5.86441e-05
5.9397e-05
6.02138e-05
6.06455e-05
6.03889e-05
6.32468e-05
6.65115e-05
6.75388e-05
6.82603e-05
6.59053e-05
5.38255e-05
3.46674e-05
1.48369e-05
3.72849e-06
3.89992e-07
2.74146e-08
2.14776e-08
2.89758e-08
3.00415e-08
2.92011e-08
2.86295e-08
2.89165e-08
2.83908e-08
2.83281e-08
2.87529e-08
2.84874e-08
2.82544e-08
2.87586e-08
2.80348e-08
2.85198e-08
2.78707e-08
2.87514e-08
2.79513e-08
2.79069e-08
2.8731e-08
2.76626e-08
2.84789e-08
2.8011e-08
2.86984e-08
2.82952e-08
2.85184e-08
2.88238e-08
2.82654e-08
2.83095e-08
2.91003e-08
2.85667e-08
2.8881e-08
2.85839e-08
2.89613e-08
2.36096e-08
1.033e-08
1.21734e-08
8.6207e-09
1.86323e-08
2.06632e-06
1.09245e-05
2.75056e-05
3.76055e-05
4.09597e-05
4.26365e-05
4.32262e-05
4.33046e-05
4.31583e-05
4.30656e-05
4.29036e-05
4.28859e-05
4.2814e-05
4.28616e-05
4.28651e-05
4.29626e-05
4.30205e-05
4.31555e-05
4.32508e-05
4.34163e-05
4.35413e-05
4.37383e-05
4.38954e-05
4.41341e-05
4.43317e-05
4.46249e-05
4.48792e-05
4.52429e-05
4.55667e-05
4.60089e-05
4.64044e-05
4.69145e-05
4.73524e-05
4.78976e-05
4.83299e-05
4.88382e-05
4.91718e-05
4.9538e-05
4.97144e-05
4.99363e-05
5.00119e-05
5.02011e-05
5.0344e-05
5.07137e-05
5.11024e-05
5.17032e-05
5.22153e-05
5.26966e-05
5.27867e-05
5.25909e-05
5.19449e-05
5.12107e-05
5.05366e-05
5.03601e-05
5.06667e-05
5.1304e-05
5.14892e-05
5.07672e-05
4.90793e-05
4.72763e-05
4.64084e-05
4.70623e-05
4.79694e-05
4.74878e-05
4.5024e-05
4.26698e-05
4.26195e-05
4.42806e-05
4.42491e-05
4.1437e-05
3.91281e-05
3.99865e-05
4.12611e-05
3.92164e-05
3.63445e-05
3.67316e-05
3.7826e-05
3.56279e-05
3.30832e-05
3.39714e-05
3.40828e-05
3.11876e-05
3.06868e-05
3.15519e-05
2.91757e-05
2.79683e-05
2.85201e-05
2.62332e-05
2.49098e-05
2.4927e-05
2.28387e-05
2.18382e-05
2.12954e-05
1.94283e-05
1.8941e-05
1.76432e-05
1.65988e-05
1.563e-05
1.46915e-05
1.34982e-05
1.28065e-05
1.16023e-05
1.09137e-05
9.8331e-06
9.08153e-06
8.11428e-06
7.24525e-06
6.32463e-06
5.40027e-06
4.47778e-06
3.72052e-06
2.8828e-06
2.27062e-06
1.51308e-06
1.09714e-06
5.32211e-07
4.35837e-07
1.29361e-07
1.31434e-07
3.79791e-08
7.07488e-08
2.45923e-08
5.22696e-08
2.37341e-08
3.59057e-08
2.57651e-08
2.8886e-08
2.25155e-08
3.24059e-08
2.26303e-08
3.62353e-08
2.39183e-08
3.84419e-08
2.51881e-08
4.30095e-08
2.89875e-08
4.35348e-08
2.80048e-08
3.56842e-08
2.34877e-08
3.2038e-08
2.75151e-08
3.73108e-08
3.4776e-08
3.26349e-08
3.3212e-08
2.94559e-08
4.07752e-08
2.94587e-08
3.48253e-08
2.08724e-08
2.88624e-08
1.72818e-08
2.95715e-08
2.6187e-08
3.93324e-08
3.49227e-08
2.82917e-08
3.47956e-08
2.87037e-08
5.16701e-08
4.55008e-08
6.80476e-08
6.23474e-08
4.30564e-08
6.38145e-08
4.89332e-08
3.32581e-08
3.1013e-08
2.25514e-08
2.82241e-08
2.36943e-08
2.95801e-08
2.36275e-08
2.56999e-08
1.96343e-08
2.14915e-08
1.63848e-08
1.92499e-08
1.41074e-08
1.86185e-08
1.25401e-08
1.72014e-08
1.05069e-08
1.64065e-08
9.52444e-09
1.74355e-08
1.01571e-08
1.87978e-08
1.11086e-08
1.92819e-08
1.04597e-08
2.15064e-08
1.07882e-08
2.7097e-08
1.32109e-08
3.49798e-08
2.14342e-08
5.62067e-08
5.12381e-08
1.38813e-07
2.17595e-07
5.48464e-07
8.39538e-07
1.42978e-06
2.08992e-06
2.87816e-06
3.80845e-06
4.78764e-06
5.94213e-06
7.23506e-06
8.5055e-06
1.02822e-05
1.11859e-05
1.33906e-05
1.37817e-05
1.6009e-05
1.64336e-05
1.78306e-05
1.92024e-05
1.966e-05
2.12442e-05
2.21215e-05
2.25772e-05
2.45034e-05
2.44942e-05
2.59712e-05
2.66728e-05
2.79286e-05
2.8692e-05
2.83505e-05
3.20957e-05
3.07994e-05
3.404e-05
4.06918e-05
3.75789e-05
4.08329e-05
5.04728e-05
5.77522e-05
6.12192e-05
6.14986e-05
6.24883e-05
6.29623e-05
6.39342e-05
6.37089e-05
6.38211e-05
6.23577e-05
6.14037e-05
6.02971e-05
5.94276e-05
5.85401e-05
5.80918e-05
5.72553e-05
5.69816e-05
5.68583e-05
5.66704e-05
5.6113e-05
5.60458e-05
5.59585e-05
5.5511e-05
5.52005e-05
5.50309e-05
5.46383e-05
5.43786e-05
5.44867e-05
5.46836e-05
5.49181e-05
5.52896e-05
5.57814e-05
5.62542e-05
5.67506e-05
5.72664e-05
5.78608e-05
5.84233e-05
5.90214e-05
5.95678e-05
6.01762e-05
6.07343e-05
6.13681e-05
6.19333e-05
6.25721e-05
6.31033e-05
6.36903e-05
6.41603e-05
6.47125e-05
6.51434e-05
6.56367e-05
6.59594e-05
6.63159e-05
6.64805e-05
6.66878e-05
6.67264e-05
6.68325e-05
6.67885e-05
6.68163e-05
6.67078e-05
6.66875e-05
6.65644e-05
6.65435e-05
6.64418e-05
6.64361e-05
6.6348e-05
6.63494e-05
6.62765e-05
6.6297e-05
6.62591e-05
6.63202e-05
6.6337e-05
6.64629e-05
6.65546e-05
6.67971e-05
6.70341e-05
6.74793e-05
6.79479e-05
6.87917e-05
6.94914e-05
7.0334e-05
7.06973e-05
7.0338e-05
6.98767e-05
7.04903e-05
7.15517e-05
7.67859e-05
7.82721e-05
6.09943e-05
3.46734e-05
1.664e-05
5.10327e-06
6.99806e-07
5.34081e-08
2.63985e-08
2.43012e-08
2.67942e-08
2.86997e-08
2.84814e-08
2.90713e-08
2.84485e-08
2.83429e-08
2.86235e-08
2.85282e-08
2.8403e-08
2.8668e-08
2.80406e-08
2.85459e-08
2.78884e-08
2.87788e-08
2.7984e-08
2.79817e-08
2.88172e-08
2.8029e-08
2.85403e-08
2.80666e-08
2.87098e-08
2.83006e-08
2.85166e-08
2.8704e-08
2.83807e-08
2.85641e-08
2.90416e-08
2.85636e-08
2.9224e-08
2.99463e-08
3.23489e-08
3.88446e-08
3.49374e-08
1.79212e-08
1.51407e-08
1.46354e-08
5.18907e-07
6.13378e-06
2.08475e-05
3.45528e-05
3.92712e-05
4.14658e-05
4.31463e-05
4.36496e-05
4.40617e-05
4.42801e-05
4.44131e-05
4.45785e-05
4.46734e-05
4.48279e-05
4.4939e-05
4.51021e-05
4.52432e-05
4.5427e-05
4.56018e-05
4.58152e-05
4.60263e-05
4.62816e-05
4.65381e-05
4.6851e-05
4.71652e-05
4.75497e-05
4.79354e-05
4.84006e-05
4.88615e-05
4.94002e-05
4.99217e-05
5.04988e-05
5.10248e-05
5.15864e-05
5.20511e-05
5.25194e-05
5.28458e-05
5.31523e-05
5.33225e-05
5.35105e-05
5.36388e-05
5.38789e-05
5.41645e-05
5.46515e-05
5.51996e-05
5.58594e-05
5.63749e-05
5.66998e-05
5.65699e-05
5.60729e-05
5.51998e-05
5.43304e-05
5.3717e-05
5.37103e-05
5.41893e-05
5.47549e-05
5.45562e-05
5.32437e-05
5.10746e-05
4.91627e-05
4.86019e-05
4.9564e-05
5.02228e-05
4.89483e-05
4.57755e-05
4.34708e-05
4.40075e-05
4.57651e-05
4.48743e-05
4.12522e-05
3.91319e-05
4.0562e-05
4.14296e-05
3.83803e-05
3.5399e-05
3.6337e-05
3.70837e-05
3.3961e-05
3.14342e-05
3.27427e-05
3.22245e-05
2.87685e-05
2.86028e-05
2.91898e-05
2.61232e-05
2.51466e-05
2.55896e-05
2.26621e-05
2.14132e-05
2.13055e-05
1.8745e-05
1.78087e-05
1.70487e-05
1.49198e-05
1.44413e-05
1.2895e-05
1.17216e-05
1.06183e-05
9.44309e-06
8.05169e-06
7.14367e-06
5.73564e-06
4.93141e-06
3.79423e-06
3.08893e-06
2.3411e-06
1.64966e-06
1.19303e-06
5.83476e-07
3.36553e-07
1.72823e-07
1.0826e-07
5.52436e-08
5.22924e-08
3.33644e-08
3.45279e-08
3.44324e-08
4.113e-08
2.56378e-08
4.77943e-08
2.56481e-08
3.92447e-08
2.42079e-08
5.1484e-08
1.57441e-08
7.92267e-08
1.21259e-08
9.1551e-08
1.4349e-08
7.69248e-08
1.77656e-08
6.23128e-08
2.15069e-08
5.29206e-08
2.13906e-08
4.71055e-08
2.097e-08
5.12899e-08
2.75393e-08
6.49793e-08
3.10844e-08
6.0626e-08
2.5805e-08
5.57667e-08
2.88297e-08
6.07175e-08
3.11407e-08
5.42198e-08
3.35163e-08
6.22273e-08
4.88641e-08
7.25142e-08
6.27644e-08
7.09178e-08
6.30448e-08
5.40965e-08
7.09165e-08
7.02983e-08
6.25159e-08
5.23917e-08
5.85971e-08
3.65196e-08
6.65136e-08
5.19331e-08
3.97344e-08
4.19668e-08
2.35118e-08
3.3473e-08
2.66506e-08
2.57881e-08
1.88069e-08
1.71444e-08
1.39222e-08
1.51386e-08
1.33487e-08
1.51334e-08
1.37078e-08
1.51292e-08
1.38296e-08
1.53121e-08
1.47034e-08
1.60752e-08
1.59673e-08
1.68336e-08
1.63656e-08
1.5843e-08
1.54228e-08
1.37202e-08
1.50378e-08
1.34486e-08
1.58352e-08
1.45088e-08
1.57829e-08
1.4221e-08
1.50953e-08
1.30214e-08
1.68763e-08
1.18067e-08
2.15102e-08
1.27875e-08
2.40215e-08
1.65257e-08
2.87183e-08
2.22646e-08
3.16872e-08
4.38637e-08
4.63211e-08
1.34966e-07
1.53669e-07
4.1176e-07
8.1143e-07
1.17261e-06
2.56755e-06
2.48732e-06
4.80557e-06
4.63739e-06
7.02959e-06
7.50035e-06
9.03022e-06
1.09136e-05
1.15266e-05
1.34894e-05