/*--------------------------------*- C++ -*----------------------------------*\
| =========                 |                                                 |
| \\      /  F ield         | OpenFOAM: The Open Source CFD Toolbox           |
|  \\    /   O peration     | Version:  v2006                                 |
|   \\  /    A nd           | Website:  www.openfoam.com                      |
|    \\/     M anipulation  |                                                 |
\*---------------------------------------------------------------------------*/
FoamFile
{
    version     2.0;
    format      ascii;
    class       volScalarField;
    location    "100";
    object      nuTilda;
}
// * * * * * * * * * * * * * * * * * * * * * * * * * * * * * * * * * * * * * //

dimensions      [0 2 -1 0 0 0 0];


internalField   nonuniform List<scalar> 
93840
(
3.98168e-07
3.98014e-07
3.98158e-07
3.9809e-07
3.98204e-07
3.98276e-07
3.98389e-07
3.98499e-07
3.9842e-07
3.98838e-07
3.99479e-07
4.00623e-07
4.01056e-07
4.00586e-07
3.93012e-07
3.83969e-07
4.04572e-07
4.18177e-07
3.932e-07
1.47534e-06
6.91405e-06
2.21198e-05
4.13199e-05
4.4981e-05
3.80004e-05
3.34161e-05
2.65011e-05
2.14057e-05
1.874e-05
1.62426e-05
1.48083e-05
1.31535e-05
1.35257e-05
1.29016e-05
1.29806e-05
1.27866e-05
1.26748e-05
1.26032e-05
1.24519e-05
1.24095e-05
1.22756e-05
1.22414e-05
1.21227e-05
1.20811e-05
1.19717e-05
1.19164e-05
1.18166e-05
1.17664e-05
1.16795e-05
1.16177e-05
1.15429e-05
1.14904e-05
1.14041e-05
1.13321e-05
1.13002e-05
1.12977e-05
1.12487e-05
1.11951e-05
1.11113e-05
1.10641e-05
1.10405e-05
1.09819e-05
1.09269e-05
1.09133e-05
1.08908e-05
1.08564e-05
1.08498e-05
1.08523e-05
1.08444e-05
1.08421e-05
1.08539e-05
1.08461e-05
1.08523e-05
1.08515e-05
1.0849e-05
1.08554e-05
1.08857e-05
1.09192e-05
1.09742e-05
1.09983e-05
1.10025e-05
1.09993e-05
1.103e-05
1.11095e-05
1.12036e-05
1.12527e-05
1.12732e-05
1.12985e-05
1.13876e-05
1.15112e-05
1.16073e-05
1.16594e-05
1.17527e-05
1.19289e-05
1.20763e-05
1.21646e-05
1.22821e-05
1.24821e-05
1.26501e-05
1.27645e-05
1.2943e-05
1.31714e-05
1.33268e-05
1.36518e-05
1.40507e-05
1.41392e-05
1.41839e-05
1.44937e-05
1.47779e-05
1.50463e-05
1.53608e-05
1.56409e-05
1.5918e-05
1.62854e-05
1.65845e-05
1.69171e-05
1.72044e-05
1.75509e-05
1.78196e-05
1.8114e-05
1.83205e-05
1.8585e-05
1.86944e-05
1.88875e-05
1.8871e-05
1.88602e-05
1.89335e-05
1.87476e-05
1.88027e-05
1.87077e-05
1.85724e-05
1.85108e-05
1.8359e-05
1.83284e-05
1.82157e-05
1.81282e-05
1.80006e-05
1.79415e-05
1.78448e-05
1.7804e-05
1.77341e-05
1.76757e-05
1.75659e-05
1.75184e-05
1.74465e-05
1.74005e-05
1.7334e-05
1.72828e-05
1.71882e-05
1.71033e-05
1.70106e-05
1.69225e-05
1.681e-05
1.66986e-05
1.65627e-05
1.64246e-05
1.62605e-05
1.60899e-05
1.5898e-05
1.5719e-05
1.55442e-05
1.53471e-05
1.50962e-05
1.4838e-05
1.45555e-05
1.42155e-05
1.37434e-05
1.30381e-05
1.18908e-05
1.03654e-05
9.67564e-06
1.04752e-05
8.60504e-06
2.56091e-06
4.11463e-07
4.24816e-06
3.75111e-06
2.55795e-07
3.02341e-07
8.59094e-07
7.68874e-07
3.90135e-07
6.73764e-07
4.82061e-07
4.9565e-07
6.49102e-07
5.70127e-07
1.42449e-07
6.59319e-06
1.11337e-05
2.29823e-06
5.45205e-06
1.87605e-05
2.20243e-05
1.98225e-05
2.22678e-05
2.58926e-05
2.84556e-05
2.9385e-05
2.99645e-05
3.00155e-05
2.99442e-05
2.98528e-05
2.97745e-05
2.96823e-05
2.95534e-05
2.94181e-05
2.93066e-05
2.91595e-05
2.90245e-05
2.88846e-05
2.87485e-05
2.85985e-05
2.84696e-05
2.83131e-05
2.81606e-05
2.79847e-05
2.78551e-05
2.76967e-05
2.76053e-05
2.74849e-05
2.7504e-05
2.73469e-05
2.71991e-05
2.69938e-05
2.68306e-05
2.66327e-05
2.64801e-05
2.62792e-05
2.61044e-05
2.60052e-05
2.60781e-05
2.59898e-05
2.60453e-05
2.59642e-05
2.59024e-05
2.58031e-05
2.57359e-05
2.56139e-05
2.55508e-05
2.54592e-05
2.53954e-05
2.53407e-05
2.5326e-05
2.52675e-05
2.52576e-05
2.51475e-05
2.53283e-05
2.51158e-05
2.50997e-05
2.53623e-05
2.51662e-05
2.54561e-05
2.49209e-05
2.43277e-05
2.19904e-05
1.68688e-05
1.32844e-05
1.28001e-05
1.30541e-05
1.32672e-05
1.32869e-05
1.33218e-05
1.32895e-05
1.32508e-05
1.3132e-05
1.30335e-05
1.28214e-05
1.24728e-05
1.21341e-05
1.20723e-05
1.19754e-05
1.16615e-05
1.12654e-05
1.10953e-05
1.09769e-05
1.07535e-05
1.04424e-05
1.01787e-05
9.92261e-06
9.65895e-06
9.40116e-06
9.1293e-06
8.85777e-06
8.58941e-06
8.33579e-06
8.08693e-06
7.84996e-06
7.61614e-06
7.38486e-06
7.15517e-06
6.93203e-06
6.712e-06
6.49975e-06
6.28946e-06
6.08298e-06
5.88405e-06
5.68758e-06
5.5003e-06
5.31953e-06
5.1544e-06
4.9864e-06
4.8298e-06
4.65372e-06
4.49814e-06
4.32038e-06
4.18332e-06
4.00359e-06
3.87778e-06
3.6913e-06
3.57432e-06
3.38057e-06
3.28338e-06
3.1001e-06
3.02468e-06
2.86229e-06
2.79908e-06
2.67348e-06
2.62346e-06
2.56443e-06
2.5222e-06
2.51901e-06
2.47198e-06
2.49495e-06
2.44466e-06
2.48368e-06
2.43657e-06
2.50003e-06
2.45198e-06
2.55095e-06
2.51702e-06
2.70808e-06
2.77711e-06
3.00433e-06
3.93749e-06
3.70032e-06
9.1375e-06
1.52538e-05
1.92525e-05
2.31211e-05
2.46827e-05
2.63672e-05
3.0024e-05
3.4802e-05
4.44934e-05
4.42006e-05
2.5815e-05
8.67382e-06
2.11467e-06
5.49246e-07
3.68596e-07
4.41408e-07
4.28321e-07
4.01083e-07
4.00179e-07
4.00958e-07
4.00597e-07
3.99435e-07
3.98969e-07
3.98291e-07
3.98377e-07
3.98362e-07
3.98249e-07
3.98164e-07
3.98001e-07
3.97856e-07
3.97757e-07
3.97808e-07
3.97606e-07
3.97844e-07
3.97748e-07
3.97983e-07
3.97947e-07
3.98386e-07
3.98355e-07
3.98526e-07
3.98655e-07
3.98725e-07
3.99383e-07
4.0029e-07
4.01005e-07
4.01077e-07
4.00149e-07
3.84683e-07
3.53073e-07
3.74053e-07
4.83336e-07
9.32743e-07
4.63106e-06
1.75317e-05
3.67537e-05
4.42214e-05
4.0702e-05
3.89783e-05
3.41034e-05
2.88416e-05
2.50303e-05
2.12257e-05
1.91084e-05
1.73628e-05
1.67663e-05
1.63795e-05
1.71389e-05
1.60858e-05
1.7247e-05
1.60256e-05
1.72355e-05
1.60465e-05
1.71701e-05
1.61023e-05
1.71147e-05
1.61849e-05
1.7068e-05
1.6276e-05
1.70217e-05
1.63554e-05
1.69944e-05
1.64524e-05
1.69847e-05
1.65541e-05
1.702e-05
1.66578e-05
1.70286e-05
1.67875e-05
1.71806e-05
1.70111e-05
1.73248e-05
1.71594e-05
1.74183e-05
1.73183e-05
1.74932e-05
1.73702e-05
1.75459e-05
1.74808e-05
1.76308e-05
1.76404e-05
1.78327e-05
1.7875e-05
1.80287e-05
1.80326e-05
1.80636e-05
1.79941e-05
1.79931e-05
1.79804e-05
1.8114e-05
1.82592e-05
1.84076e-05
1.84033e-05
1.82833e-05
1.81092e-05
1.81202e-05
1.83327e-05
1.86014e-05
1.8589e-05
1.83188e-05
1.8155e-05
1.83942e-05
1.87764e-05
1.87598e-05
1.84179e-05
1.83823e-05
1.88165e-05
1.89994e-05
1.86693e-05
1.85775e-05
1.9e-05
1.91331e-05
1.87728e-05
1.88346e-05
1.92577e-05
1.90622e-05
1.89057e-05
1.93719e-05
1.93825e-05
1.91212e-05
1.94081e-05
1.93765e-05
1.92017e-05
1.94091e-05
1.93291e-05
1.92159e-05
1.9343e-05
1.91799e-05
1.92067e-05
1.91299e-05
1.90659e-05
1.8966e-05
1.89146e-05
1.87339e-05
1.86741e-05
1.84544e-05
1.83621e-05
1.81257e-05
1.80092e-05
1.77822e-05
1.76231e-05
1.74284e-05
1.72209e-05
1.70367e-05
1.68383e-05
1.66467e-05
1.64572e-05
1.62471e-05
1.60641e-05
1.58597e-05
1.56852e-05
1.54786e-05
1.53026e-05
1.50853e-05
1.4904e-05
1.46946e-05
1.45171e-05
1.42987e-05
1.4102e-05
1.3869e-05
1.36516e-05
1.34033e-05
1.31741e-05
1.29051e-05
1.26387e-05
1.23332e-05
1.20115e-05
1.16234e-05
1.11818e-05
1.06604e-05
1.01183e-05
9.58573e-06
9.08843e-06
8.49057e-06
7.65622e-06
6.59508e-06
5.67155e-06
5.19366e-06
4.91184e-06
4.10666e-06
2.62895e-06
1.12099e-06
5.70156e-07
1.10273e-06
1.54491e-06
9.19683e-07
7.59705e-07
2.35648e-08
1.82976e-07
1.94695e-07
4.08137e-07
5.01002e-07
3.57744e-07
1.57282e-07
5.13335e-07
2.53074e-07
4.60894e-07
5.11752e-07
4.73956e-07
4.96996e-07
3.14535e-07
6.32415e-07
4.66263e-07
6.53239e-07
1.08343e-06
2.2447e-06
2.94179e-06
2.51959e-06
2.09672e-06
3.62413e-06
6.69971e-06
9.34559e-06
1.10401e-05
1.22033e-05
1.36251e-05
1.51698e-05
1.65863e-05
1.77022e-05
1.86652e-05
1.94632e-05
2.01509e-05
2.06861e-05
2.11599e-05
2.15154e-05
2.18553e-05
2.21211e-05
2.23862e-05
2.25774e-05
2.28021e-05
2.29578e-05
2.31521e-05
2.32912e-05
2.34699e-05
2.35918e-05
2.37626e-05
2.3896e-05
2.40703e-05
2.41865e-05
2.43481e-05
2.44496e-05
2.4598e-05
2.46946e-05
2.48319e-05
2.49088e-05
2.50187e-05
2.51146e-05
2.52672e-05
2.53268e-05
2.55761e-05
2.55497e-05
2.58702e-05
2.57999e-05
2.60656e-05
2.61208e-05
2.62014e-05
2.63732e-05
2.64306e-05
2.64756e-05
2.6746e-05
2.66298e-05
2.6889e-05
2.68849e-05
2.71948e-05
2.69589e-05
2.7268e-05
2.78332e-05
2.6398e-05
2.67231e-05
2.69646e-05
2.59406e-05
2.89583e-05
3.18955e-05
3.22527e-05
3.13954e-05
3.02123e-05
2.93823e-05
2.85117e-05
2.78323e-05
2.70606e-05
2.64267e-05
2.55627e-05
2.49131e-05
2.43699e-05
2.3963e-05
2.34689e-05
2.2935e-05
2.24966e-05
2.2287e-05
2.19927e-05
2.15887e-05
2.12199e-05
2.09829e-05
2.06627e-05
2.03324e-05
2.00586e-05
1.97681e-05
1.94514e-05
1.9221e-05
1.90357e-05
1.88366e-05
1.86574e-05
1.8504e-05
1.83562e-05
1.8202e-05
1.80656e-05
1.79283e-05
1.78214e-05
1.76862e-05
1.75839e-05
1.74504e-05
1.73687e-05
1.72334e-05
1.7178e-05
1.70409e-05
1.69986e-05
1.68358e-05
1.68022e-05
1.6635e-05
1.66399e-05
1.64665e-05
1.64908e-05
1.62835e-05
1.63193e-05
1.60822e-05
1.61438e-05
1.5897e-05
1.59948e-05
1.57268e-05
1.5837e-05
1.55428e-05
1.56727e-05
1.53774e-05
1.5548e-05
1.52463e-05
1.54407e-05
1.51087e-05
1.53273e-05
1.49704e-05
1.52429e-05
1.48555e-05
1.52091e-05
1.47701e-05
1.52076e-05
1.47719e-05
1.5318e-05
1.51057e-05
1.58456e-05
1.6808e-05
1.88463e-05
2.38266e-05
2.76654e-05
3.28938e-05
3.75781e-05
3.88637e-05
3.95974e-05
3.72207e-05
3.45969e-05
4.361e-05
4.61621e-05
2.92764e-05
1.07854e-05
2.69555e-06
8.01752e-07
4.21502e-07
3.62352e-07
3.97469e-07
4.07438e-07
4.02866e-07
4.01003e-07
4.00742e-07
3.99447e-07
3.98656e-07
3.98563e-07
3.98463e-07
3.98526e-07
3.98274e-07
3.98145e-07
3.98201e-07
3.98094e-07
3.98131e-07
3.97944e-07
3.98142e-07
3.98024e-07
3.97983e-07
3.98055e-07
3.98098e-07
3.98295e-07
3.98365e-07
3.98413e-07
3.98546e-07
3.99055e-07
3.99172e-07
4.0059e-07
4.01052e-07
4.01426e-07
4.03965e-07
4.26378e-07
4.5768e-07
4.26728e-07
4.11579e-07
6.30298e-07
2.80571e-06
1.23899e-05
3.04734e-05
4.14727e-05
4.0998e-05
4.13022e-05
3.9116e-05
3.60866e-05
3.37653e-05
3.11135e-05
2.94783e-05
2.81009e-05
2.76099e-05
2.71757e-05
2.72656e-05
2.6956e-05
2.71563e-05
2.69236e-05
2.71309e-05
2.69436e-05
2.71557e-05
2.69981e-05
2.72293e-05
2.70802e-05
2.73308e-05
2.71763e-05
2.74406e-05
2.72902e-05
2.75856e-05
2.74488e-05
2.77706e-05
2.76636e-05
2.8019e-05
2.79286e-05
2.83294e-05
2.83499e-05
2.88247e-05
2.88448e-05
2.92384e-05
2.92144e-05
2.95575e-05
2.95046e-05
2.97119e-05
2.96143e-05
2.98468e-05
2.98165e-05
3.01067e-05
3.02486e-05
3.06411e-05
3.0807e-05
3.10658e-05
3.09922e-05
3.08936e-05
3.05931e-05
3.04388e-05
3.03783e-05
3.06799e-05
3.10187e-05
3.12345e-05
3.09567e-05
3.03268e-05
2.96804e-05
2.96492e-05
3.01688e-05
3.06502e-05
3.02224e-05
2.91757e-05
2.86191e-05
2.92057e-05
2.99344e-05
2.94285e-05
2.82301e-05
2.8079e-05
2.90038e-05
2.8999e-05
2.77835e-05
2.74617e-05
2.82829e-05
2.81216e-05
2.69031e-05
2.6943e-05
2.75967e-05
2.66947e-05
2.61558e-05
2.69752e-05
2.65179e-05
2.56832e-05
2.60942e-05
2.55709e-05
2.48763e-05
2.50616e-05
2.44648e-05
2.39277e-05
2.38906e-05
2.31837e-05
2.29697e-05
2.25083e-05
2.20854e-05
2.16566e-05
2.13141e-05
2.07571e-05
2.04811e-05
1.9927e-05
1.96457e-05
1.91481e-05
1.88461e-05
1.83858e-05
1.80712e-05
1.76198e-05
1.72734e-05
1.68547e-05
1.64857e-05
1.60751e-05
1.56818e-05
1.52579e-05
1.48695e-05
1.44393e-05
1.40431e-05
1.35946e-05
1.31741e-05
1.27077e-05
1.228e-05
1.18171e-05
1.13722e-05
1.08737e-05
1.0371e-05
9.81294e-06
9.24098e-06
8.61257e-06
7.96559e-06
7.25563e-06
6.54822e-06
5.82082e-06
5.11556e-06
4.39699e-06
3.67621e-06
2.9309e-06
2.28686e-06
1.89499e-06
1.73384e-06
1.48977e-06
1.02125e-06
6.22418e-07
5.13814e-07
4.78099e-07
4.01335e-07
3.86035e-07
4.30847e-07
4.64597e-07
4.91001e-07
4.21597e-07
3.7528e-07
4.96387e-07
6.03947e-07
5.21695e-07
5.02093e-07
4.58792e-07
4.29255e-07
3.86884e-07
4.29955e-07
5.60403e-07
4.2683e-07
4.39087e-07
3.82366e-07
3.40761e-07
4.39757e-07
4.21736e-07
4.8032e-07
4.2758e-07
4.80424e-07
5.0278e-07
5.49968e-07
4.80864e-07
5.24799e-07
6.14773e-07
4.0509e-07
2.3684e-07
7.95768e-07
1.27986e-06
1.30489e-06
1.3487e-06
1.97898e-06
2.73675e-06
3.45154e-06
4.25731e-06
5.27978e-06
6.32406e-06
7.38989e-06
8.4656e-06
9.64686e-06
1.08222e-05
1.20346e-05
1.32038e-05
1.43142e-05
1.52786e-05
1.62121e-05
1.70149e-05
1.7809e-05
1.84937e-05
1.91821e-05
1.97922e-05
2.04063e-05
2.09511e-05
2.15361e-05
2.20377e-05
2.2593e-05
2.30798e-05
2.36105e-05
2.40942e-05
2.45907e-05
2.50661e-05
2.55119e-05
2.59382e-05
2.6461e-05
2.67163e-05
2.74454e-05
2.74755e-05
2.83569e-05
2.83158e-05
2.90149e-05
2.93439e-05
2.9568e-05
3.01685e-05
3.03759e-05
3.05927e-05
3.13205e-05
3.11539e-05
3.18742e-05
3.18572e-05
3.27104e-05
3.24148e-05
3.27183e-05
3.44777e-05
3.19989e-05
3.33421e-05
3.57636e-05
3.35009e-05
3.84519e-05
4.49174e-05
4.78223e-05
4.81221e-05
4.71427e-05
4.66233e-05
4.57696e-05
4.51584e-05
4.41153e-05
4.32931e-05
4.18023e-05
4.07143e-05
3.97527e-05
3.91936e-05
3.85099e-05
3.76955e-05
3.68933e-05
3.67031e-05
3.64317e-05
3.58871e-05
3.53e-05
3.50535e-05
3.46376e-05
3.41509e-05
3.38196e-05
3.34531e-05
3.30002e-05
3.27405e-05
3.26229e-05
3.24755e-05
3.23661e-05
3.23304e-05
3.23122e-05
3.22637e-05
3.22458e-05
3.22316e-05
3.22625e-05
3.22467e-05
3.22725e-05
3.22459e-05
3.22888e-05
3.22578e-05
3.23273e-05
3.22965e-05
3.23767e-05
3.23004e-05
3.23519e-05
3.22407e-05
3.23208e-05
3.22083e-05
3.22862e-05
3.21093e-05
3.21422e-05
3.18925e-05
3.19061e-05
3.16359e-05
3.16642e-05
3.13783e-05
3.13994e-05
3.10774e-05
3.11009e-05
3.07873e-05
3.08596e-05
3.05789e-05
3.0687e-05
3.04063e-05
3.0536e-05
3.02619e-05
3.04349e-05
3.01968e-05
3.0437e-05
3.02604e-05
3.05903e-05
3.05102e-05
3.1024e-05
3.11906e-05
3.18914e-05
3.24385e-05
3.38286e-05
3.32873e-05
3.51199e-05
4.14151e-05
4.7127e-05
5.02112e-05
5.31599e-05
5.07028e-05
4.36071e-05
4.6426e-05
4.76133e-05
3.16389e-05
1.23658e-05
3.2331e-06
8.48267e-07
5.27522e-07
4.14387e-07
3.7506e-07
3.90678e-07
4.00756e-07
4.01539e-07
4.00855e-07
3.99338e-07
3.98815e-07
3.98651e-07
3.98492e-07
3.98348e-07
3.98288e-07
3.98087e-07
3.98127e-07
3.98e-07
3.97779e-07
3.98026e-07
3.9772e-07
3.97701e-07
3.97797e-07
3.97992e-07
3.98071e-07
3.98345e-07
3.98314e-07
3.98365e-07
3.98441e-07
3.98676e-07
3.99294e-07
4.00257e-07
4.00576e-07
4.0031e-07
3.95811e-07
3.96593e-07
4.35636e-07
5.19831e-07
5.05268e-07
6.97991e-07
1.85545e-06
8.12531e-06
2.40538e-05
3.80018e-05
4.0601e-05
4.19738e-05
4.13671e-05
3.95679e-05
3.83369e-05
3.67633e-05
3.58026e-05
3.49464e-05
3.45592e-05
3.42239e-05
3.41477e-05
3.4001e-05
3.40509e-05
3.39787e-05
3.40865e-05
3.40422e-05
3.41837e-05
3.41542e-05
3.43241e-05
3.43042e-05
3.44973e-05
3.44861e-05
3.47022e-05
3.47097e-05
3.49652e-05
3.50046e-05
3.53094e-05
3.53928e-05
3.57608e-05
3.58899e-05
3.63317e-05
3.6535e-05
3.70345e-05
3.72159e-05
3.76338e-05
3.77285e-05
3.80492e-05
3.80496e-05
3.82464e-05
3.82026e-05
3.84504e-05
3.85281e-05
3.89241e-05
3.92124e-05
3.97135e-05
3.99464e-05
4.01571e-05
3.9945e-05
3.96444e-05
3.91525e-05
3.89038e-05
3.88979e-05
3.93528e-05
3.97811e-05
3.98589e-05
3.91848e-05
3.80859e-05
3.71781e-05
3.72678e-05
3.80335e-05
3.84499e-05
3.74532e-05
3.57991e-05
3.51625e-05
3.61351e-05
3.69086e-05
3.5758e-05
3.39656e-05
3.3963e-05
3.52011e-05
3.47489e-05
3.28345e-05
3.25471e-05
3.36218e-05
3.29694e-05
3.11311e-05
3.13282e-05
3.20094e-05
3.04549e-05
2.97655e-05
3.07345e-05
2.97162e-05
2.85814e-05
2.90936e-05
2.80476e-05
2.70153e-05
2.71686e-05
2.60898e-05
2.52908e-05
2.51037e-05
2.39613e-05
2.35977e-05
2.28363e-05
2.21571e-05
2.1502e-05
2.09439e-05
2.0125e-05
1.96993e-05
1.88959e-05
1.84746e-05
1.77668e-05
1.73211e-05
1.66899e-05
1.62144e-05
1.56032e-05
1.50944e-05
1.4487e-05
1.3974e-05
1.336e-05
1.28105e-05
1.21752e-05
1.16173e-05
1.09758e-05
1.03947e-05
9.7068e-06
9.04503e-06
8.29109e-06
7.56651e-06
6.78688e-06
6.03392e-06
5.2387e-06
4.47643e-06
3.73727e-06
3.08893e-06
2.50533e-06
1.99823e-06
1.55916e-06
1.2374e-06
9.83069e-07
7.88394e-07
6.2478e-07
5.50528e-07
4.68372e-07
4.08875e-07
3.98328e-07
4.11641e-07
3.98974e-07
3.85238e-07
4.01409e-07
4.14309e-07
4.26205e-07
4.31531e-07
4.04085e-07
3.75331e-07
3.76609e-07
3.87388e-07
3.67253e-07
3.86525e-07
3.27721e-07
3.12643e-07
3.2152e-07
3.76105e-07
3.81972e-07
3.94657e-07
4.13427e-07
3.89566e-07
2.84432e-07
4.38939e-07
3.61471e-07
4.53116e-07
5.23337e-07
4.56632e-07
4.06401e-07
4.5775e-07
4.12327e-07
4.14978e-07
3.75928e-07
4.02499e-07
3.68751e-07
4.12453e-07
4.33726e-07
4.54866e-07
3.93583e-07
4.43794e-07
4.71686e-07
4.14827e-07
3.87975e-07
4.47073e-07
4.82059e-07
4.92528e-07
5.46968e-07
6.84439e-07
8.18068e-07
1.01681e-06
1.24909e-06
1.61653e-06
2.07297e-06
2.6508e-06
3.37897e-06
4.26443e-06
5.15697e-06
6.2232e-06
7.30463e-06
8.54899e-06
9.74505e-06
1.10124e-05
1.22214e-05
1.34204e-05
1.44795e-05
1.55433e-05
1.64532e-05
1.7393e-05
1.82377e-05
1.91106e-05
1.99369e-05
2.07518e-05
2.15681e-05
2.23456e-05
2.30843e-05
2.39887e-05
2.44316e-05
2.56075e-05
2.57011e-05
2.70476e-05
2.70751e-05
2.80733e-05
2.86915e-05
2.90081e-05
2.99592e-05
3.03495e-05
3.0664e-05
3.18205e-05
3.16133e-05
3.2716e-05
3.27745e-05
3.39303e-05
3.38358e-05
3.39293e-05
3.66276e-05
3.40675e-05
3.62494e-05
4.03038e-05
3.73989e-05
4.22884e-05
5.06013e-05
5.53976e-05
5.68299e-05
5.62323e-05
5.61531e-05
5.55769e-05
5.52894e-05
5.42948e-05
5.35647e-05
5.18425e-05
5.06314e-05
4.94573e-05
4.87335e-05
4.7954e-05
4.7147e-05
4.61922e-05
4.59575e-05
4.57209e-05
4.52063e-05
4.45483e-05
4.4336e-05
4.39432e-05
4.33916e-05
4.30463e-05
4.26952e-05
4.21966e-05
4.19246e-05
4.18856e-05
4.18278e-05
4.18113e-05
4.19031e-05
4.20397e-05
4.21373e-05
4.22672e-05
4.24114e-05
4.26119e-05
4.27646e-05
4.29582e-05
4.30983e-05
4.33078e-05
4.34494e-05
4.36856e-05
4.38314e-05
4.40729e-05
4.41718e-05
4.43677e-05
4.44168e-05
4.46179e-05
4.46573e-05
4.48332e-05
4.47906e-05
4.48786e-05
4.47309e-05
4.47502e-05
4.45564e-05
4.45544e-05
4.43342e-05
4.4303e-05
4.40463e-05
4.39979e-05
4.37528e-05
4.37386e-05
4.35377e-05
4.35534e-05
4.33679e-05
4.3398e-05
4.32334e-05
4.33007e-05
4.3188e-05
4.33198e-05
4.32907e-05
4.35182e-05
4.36066e-05
4.40147e-05
4.43352e-05
4.50262e-05
4.57138e-05
4.72282e-05
4.76296e-05
4.76197e-05
4.91749e-05
5.34363e-05
5.7216e-05
6.14834e-05
6.09211e-05
5.62409e-05
5.40687e-05
4.96753e-05
3.33722e-05
1.32373e-05
3.36946e-06
8.11966e-07
4.28114e-07
4.52333e-07
4.2781e-07
4.00078e-07
3.99591e-07
4.01233e-07
4.00781e-07
3.99469e-07
3.98858e-07
3.98484e-07
3.98461e-07
3.98459e-07
3.98304e-07
3.98255e-07
3.98247e-07
3.97958e-07
3.98009e-07
3.97916e-07
3.98007e-07
3.97858e-07
3.98307e-07
3.98069e-07
3.98161e-07
3.98196e-07
3.98342e-07
3.98438e-07
3.9813e-07
3.99023e-07
3.99498e-07
4.00578e-07
4.01002e-07
4.0025e-07
3.96889e-07
3.79086e-07
3.3045e-07
3.40716e-07
4.09853e-07
4.55874e-07
9.34834e-07
4.61543e-06
1.72946e-05
3.33687e-05
3.95654e-05
4.18857e-05
4.25944e-05
4.20609e-05
4.15348e-05
4.07475e-05
4.02706e-05
3.97971e-05
3.95979e-05
3.93712e-05
3.9343e-05
3.92544e-05
3.93137e-05
3.93054e-05
3.94088e-05
3.94442e-05
3.95749e-05
3.96355e-05
3.97922e-05
3.98717e-05
4.006e-05
4.01606e-05
4.03886e-05
4.0524e-05
4.0808e-05
4.09948e-05
4.13485e-05
4.15972e-05
4.20265e-05
4.2331e-05
4.28292e-05
4.31745e-05
4.3689e-05
4.39776e-05
4.4383e-05
4.45423e-05
4.48143e-05
4.48541e-05
4.50338e-05
4.50691e-05
4.53568e-05
4.55807e-05
4.60843e-05
4.65099e-05
4.70457e-05
4.72584e-05
4.73096e-05
4.68959e-05
4.63657e-05
4.57382e-05
4.54774e-05
4.56051e-05
4.61883e-05
4.65772e-05
4.63336e-05
4.51674e-05
4.36534e-05
4.26659e-05
4.30023e-05
4.39228e-05
4.40162e-05
4.23115e-05
4.0194e-05
3.97336e-05
4.10976e-05
4.16247e-05
3.96733e-05
3.74885e-05
3.78412e-05
3.922e-05
3.80682e-05
3.55755e-05
3.5535e-05
3.67212e-05
3.53714e-05
3.30717e-05
3.35675e-05
3.4076e-05
3.1838e-05
3.1161e-05
3.21486e-05
3.04734e-05
2.92129e-05
2.97803e-05
2.81345e-05
2.68869e-05
2.69871e-05
2.54026e-05
2.44472e-05
2.40926e-05
2.25585e-05
2.21046e-05
2.1066e-05
2.018e-05
1.93489e-05
1.8596e-05
1.75681e-05
1.70076e-05
1.59889e-05
1.54361e-05
1.45369e-05
1.39544e-05
1.31686e-05
1.25253e-05
1.17826e-05
1.10876e-05
1.03102e-05
9.63073e-06
8.78602e-06
8.03102e-06
7.10666e-06
6.31997e-06
5.40743e-06
4.67344e-06
3.83508e-06
3.17459e-06
2.486e-06
1.99908e-06
1.53597e-06
1.23738e-06
9.47629e-07
7.83862e-07
6.36269e-07
5.58744e-07
5.08253e-07
4.80018e-07
4.29472e-07
4.43543e-07
4.23552e-07
4.38944e-07
4.03545e-07
4.37586e-07
4.02109e-07
4.31534e-07
4.25749e-07
4.47892e-07
4.33517e-07
4.61563e-07
4.17266e-07
4.32822e-07
4.06777e-07
4.29999e-07
4.40186e-07
4.45694e-07
4.33536e-07
4.44212e-07
4.5292e-07
4.75157e-07
4.78563e-07
5.00517e-07
4.83058e-07
4.41254e-07
4.48511e-07
4.18215e-07
4.35673e-07
4.37852e-07
4.73816e-07
4.27543e-07
3.81094e-07
4.18123e-07
4.32558e-07
4.1456e-07
4.16641e-07
4.29546e-07
4.0622e-07
4.58305e-07
4.3696e-07
4.64795e-07
4.1357e-07
4.26159e-07
3.89016e-07
4.09086e-07
3.87885e-07
4.17782e-07
4.1813e-07
4.28686e-07
4.24048e-07
4.41487e-07
4.39476e-07
4.49429e-07
4.52848e-07
4.76745e-07
4.59077e-07
4.95151e-07
4.62407e-07
4.90097e-07
5.01009e-07
5.37062e-07
5.84713e-07
7.3224e-07
7.93109e-07
1.03639e-06
1.20717e-06
1.63711e-06
2.05468e-06
2.69331e-06
3.39681e-06
4.34934e-06
5.34833e-06
6.5174e-06
7.60832e-06
8.85493e-06
1.00828e-05
1.13754e-05
1.26374e-05
1.3855e-05
1.50652e-05
1.62165e-05
1.7269e-05
1.85746e-05
1.92064e-05
2.08397e-05
2.10221e-05
2.28012e-05
2.29656e-05
2.41892e-05
2.51531e-05
2.55424e-05
2.68193e-05
2.74346e-05
2.78182e-05
2.93877e-05
2.922e-05
3.05867e-05
3.08861e-05
3.21634e-05
3.24506e-05
3.22901e-05
3.56722e-05
3.35628e-05
3.63008e-05
4.17737e-05
3.85516e-05
4.27687e-05
5.21102e-05
5.84046e-05
6.09541e-05
6.08264e-05
6.12877e-05
6.11826e-05
6.14397e-05
6.07297e-05
6.0318e-05
5.86083e-05
5.74489e-05
5.62269e-05
5.53879e-05
5.45419e-05
5.3871e-05
5.29068e-05
5.2636e-05
5.24511e-05
5.20609e-05
5.14124e-05
5.1264e-05
5.09866e-05
5.04433e-05
5.0104e-05
4.98248e-05
4.93451e-05
4.90697e-05
4.91087e-05
4.91709e-05
4.927e-05
4.94987e-05
4.98094e-05
5.00846e-05
5.03881e-05
5.0712e-05
5.11044e-05
5.14541e-05
5.1842e-05
5.21767e-05
5.2579e-05
5.29221e-05
5.33502e-05
5.36995e-05
5.41327e-05
5.444e-05
5.48209e-05
5.50693e-05
5.54333e-05
5.56577e-05
5.59775e-05
5.61047e-05
5.6308e-05
5.63001e-05
5.63899e-05
5.62975e-05
5.6328e-05
5.61839e-05
5.61626e-05
5.59723e-05
5.59191e-05
5.57316e-05
5.5696e-05
5.5545e-05
5.55354e-05
5.54031e-05
5.54036e-05
5.52929e-05
5.5323e-05
5.52594e-05
5.53472e-05
5.5357e-05
5.55314e-05
5.56402e-05
5.59697e-05
5.62733e-05
5.68714e-05
5.74533e-05
5.86444e-05
5.93973e-05
6.02141e-05
6.06458e-05
6.03893e-05
6.32471e-05
6.65117e-05
6.7539e-05
6.82606e-05
6.59055e-05
5.38258e-05
3.46682e-05
1.48407e-05
3.78337e-06
8.65823e-07
3.91078e-07
3.68211e-07
3.98893e-07
4.04855e-07
4.01862e-07
4.01077e-07
4.00533e-07
3.99373e-07
3.98908e-07
3.98316e-07
3.98457e-07
3.98288e-07
3.98417e-07
3.98221e-07
3.98153e-07
3.97859e-07
3.97859e-07
3.97842e-07
3.97758e-07
3.97867e-07
3.97179e-07
3.97997e-07
3.98009e-07
3.9814e-07
3.98306e-07
3.98457e-07
3.98658e-07
3.98566e-07
3.99008e-07
4.00794e-07
4.01147e-07
4.01195e-07
3.99562e-07
3.98786e-07
3.77652e-07
3.03409e-07
3.16516e-07
2.8889e-07
3.521e-07
2.21561e-06
1.09312e-05
2.75067e-05
3.76061e-05
4.09602e-05
4.2637e-05
4.32266e-05
4.3305e-05
4.31588e-05
4.30661e-05
4.2904e-05
4.28863e-05
4.28145e-05
4.28621e-05
4.28655e-05
4.29631e-05
4.30209e-05
4.3156e-05
4.32513e-05
4.34167e-05
4.35418e-05
4.37388e-05
4.38959e-05
4.41345e-05
4.43321e-05
4.46253e-05
4.48796e-05
4.52433e-05
4.55671e-05
4.60093e-05
4.64048e-05
4.69149e-05
4.73528e-05
4.78979e-05
4.83302e-05
4.88386e-05
4.91721e-05
4.95383e-05
4.97147e-05
4.99367e-05
5.00123e-05
5.02014e-05
5.03444e-05
5.07141e-05
5.11027e-05
5.17035e-05
5.22156e-05
5.26969e-05
5.2787e-05
5.25912e-05
5.19452e-05
5.1211e-05
5.05369e-05
5.03604e-05
5.06671e-05
5.13043e-05
5.14895e-05
5.07675e-05
4.90797e-05
4.72767e-05
4.64088e-05
4.70627e-05
4.79698e-05
4.74881e-05
4.50244e-05
4.26703e-05
4.26199e-05
4.4281e-05
4.42496e-05
4.14375e-05
3.91287e-05
3.9987e-05
4.12616e-05
3.9217e-05
3.63451e-05
3.67323e-05
3.78267e-05
3.56286e-05
3.3084e-05
3.39722e-05
3.40836e-05
3.11885e-05
3.06877e-05
3.15528e-05
2.91768e-05
2.79694e-05
2.85212e-05
2.62345e-05
2.49113e-05
2.49286e-05
2.28405e-05
2.18402e-05
2.12976e-05
1.94309e-05
1.89437e-05
1.76464e-05
1.66025e-05
1.56341e-05
1.46962e-05
1.35037e-05
1.28127e-05
1.16098e-05
1.09222e-05
9.84347e-06
9.09355e-06
8.12923e-06
7.26371e-06
6.34853e-06
5.43251e-06
4.52337e-06
3.78468e-06
2.98263e-06
2.41758e-06
1.76248e-06
1.43142e-06
1.0008e-06
9.22379e-07
6.13838e-07
6.15621e-07
4.33851e-07
5.13078e-07
3.8491e-07
4.69796e-07
3.79671e-07
4.22899e-07
3.86369e-07
3.9755e-07
3.7142e-07
4.08071e-07
3.70251e-07
4.18525e-07
3.73952e-07
4.2327e-07
3.77271e-07
4.34138e-07
3.89575e-07
4.33483e-07
3.84131e-07
4.08778e-07
3.64809e-07
3.95041e-07
3.78247e-07
4.0919e-07
4.00253e-07
3.92397e-07
3.92828e-07
3.79273e-07
4.12197e-07
3.76595e-07
3.91999e-07
3.41158e-07
3.69532e-07
3.21788e-07
3.68523e-07
3.555e-07
3.93926e-07
3.80093e-07
3.57511e-07
3.76501e-07
3.5667e-07
4.16184e-07
4.043e-07
4.52924e-07
4.48592e-07
4.12239e-07
4.71515e-07
4.49351e-07
4.16089e-07
4.1703e-07
3.94367e-07
4.2825e-07
4.19138e-07
4.52499e-07
4.33668e-07
4.53125e-07
4.23597e-07
4.411e-07
4.10991e-07
4.34404e-07
4.00579e-07
4.30818e-07
3.8974e-07
4.23516e-07
3.74092e-07
4.1852e-07
3.64556e-07
4.26004e-07
3.71219e-07
4.34985e-07
3.79499e-07
4.37403e-07
3.73785e-07
4.5042e-07
3.77082e-07
4.78331e-07
3.96546e-07
5.1075e-07
4.49872e-07
5.80171e-07
5.66179e-07
7.49931e-07
8.57793e-07
1.17499e-06
1.40272e-06
1.8484e-06
2.37736e-06
3.0635e-06
3.92475e-06
4.86458e-06
5.99368e-06
7.27095e-06
8.53193e-06
1.03007e-05
1.12018e-05
1.34019e-05
1.37925e-05
1.60171e-05
1.64415e-05
1.78373e-05
1.92083e-05
1.96657e-05
2.12491e-05
2.21262e-05
2.25817e-05
2.45073e-05
2.44982e-05
2.59748e-05
2.66763e-05
2.79318e-05
2.86952e-05
2.83537e-05
3.20983e-05
3.08022e-05
3.40423e-05
4.06934e-05
3.75807e-05
4.08342e-05
5.04735e-05
5.77528e-05
6.12197e-05
6.14991e-05
6.24887e-05
6.29628e-05
6.39346e-05
6.37093e-05
6.38215e-05
6.23581e-05
6.14041e-05
6.02976e-05
5.9428e-05
5.85406e-05
5.80923e-05
5.72557e-05
5.6982e-05
5.68588e-05
5.66709e-05
5.61134e-05
5.60463e-05
5.5959e-05
5.55115e-05
5.52009e-05
5.50314e-05
5.46388e-05
5.4379e-05
5.44872e-05
5.4684e-05
5.49185e-05
5.529e-05
5.57819e-05
5.62546e-05
5.6751e-05
5.72668e-05
5.78612e-05
5.84237e-05
5.90218e-05
5.95682e-05
6.01766e-05
6.07347e-05
6.13685e-05
6.19336e-05
6.25724e-05
6.31036e-05
6.36906e-05
6.41606e-05
6.47128e-05
6.51437e-05
6.5637e-05
6.59596e-05
6.63162e-05
6.64808e-05
6.66881e-05
6.67267e-05
6.68328e-05
6.67887e-05
6.68166e-05
6.6708e-05
6.66877e-05
6.65647e-05
6.65437e-05
6.64421e-05
6.64364e-05
6.63483e-05
6.63496e-05
6.62768e-05
6.62972e-05
6.62593e-05
6.63205e-05
6.63373e-05
6.64632e-05
6.65549e-05
6.67974e-05
6.70343e-05
6.74796e-05
6.79481e-05
6.8792e-05
6.94916e-05
7.03342e-05
7.06975e-05
7.03382e-05
6.9877e-05
7.04905e-05
7.15519e-05
7.6786e-05
7.82723e-05
6.09946e-05
3.46741e-05
1.6643e-05
5.13349e-06
1.10808e-06
4.67652e-07
3.88757e-07
3.80856e-07
3.92556e-07
4.00705e-07
4.0134e-07
4.00722e-07
3.99335e-07
3.98902e-07
3.98264e-07
3.98513e-07
3.98471e-07
3.98263e-07
3.9811e-07
3.98235e-07
3.97928e-07
3.97932e-07
3.97955e-07
3.98001e-07
3.98079e-07
3.98492e-07
3.98205e-07
3.9822e-07
3.98185e-07
3.98239e-07
3.98486e-07
3.98566e-07
3.98995e-07
3.99728e-07
4.00345e-07
4.00899e-07
4.02304e-07
4.04482e-07
4.10681e-07
4.30937e-07
4.17056e-07
3.4986e-07
3.33974e-07
3.30665e-07
9.67249e-07
6.15473e-06
2.08494e-05
3.45535e-05
3.92717e-05
4.14663e-05
4.31468e-05
4.36501e-05
4.40622e-05
4.42806e-05
4.44136e-05
4.4579e-05
4.46738e-05
4.48283e-05
4.49394e-05
4.51025e-05
4.52436e-05
4.54274e-05
4.56022e-05
4.58156e-05
4.60267e-05
4.6282e-05
4.65385e-05
4.68514e-05
4.71656e-05
4.755e-05
4.79358e-05
4.84009e-05
4.88619e-05
4.94006e-05
4.99221e-05
5.04991e-05
5.10251e-05
5.15867e-05
5.20514e-05
5.25197e-05
5.28461e-05
5.31526e-05
5.33228e-05
5.35108e-05
5.36391e-05
5.38792e-05
5.41648e-05
5.46517e-05
5.51999e-05
5.58597e-05
5.63751e-05
5.67001e-05
5.65702e-05
5.60732e-05
5.52e-05
5.43306e-05
5.37173e-05
5.37106e-05
5.41896e-05
5.47552e-05
5.45565e-05
5.3244e-05
5.10749e-05
4.91631e-05
4.86022e-05
4.95644e-05
5.02231e-05
4.89486e-05
4.57759e-05
4.34712e-05
4.40079e-05
4.57655e-05
4.48747e-05
4.12527e-05
3.91325e-05
4.05625e-05
4.14301e-05
3.83809e-05
3.53997e-05
3.63377e-05
3.70843e-05
3.39618e-05
3.14351e-05
3.27435e-05
3.22254e-05
2.87696e-05
2.86039e-05
2.91909e-05
2.61246e-05
2.51481e-05
2.5591e-05
2.26639e-05
2.14152e-05
2.13076e-05
1.87477e-05
1.78117e-05
1.70519e-05
1.49241e-05
1.44459e-05
1.29008e-05
1.17288e-05
1.0627e-05
9.45416e-06
8.06692e-06
7.16305e-06
5.76543e-06
4.97144e-06
3.85945e-06
3.18279e-06
2.48924e-06
1.88652e-06
1.51883e-06
1.05473e-06
8.49566e-07
6.80757e-07
5.89895e-07
4.87698e-07
4.79066e-07
4.23535e-07
4.26156e-07
4.25027e-07
4.44492e-07
3.91306e-07
4.60915e-07
3.8964e-07
4.35051e-07
3.82038e-07
4.66262e-07
3.40178e-07
5.23245e-07
3.16641e-07
5.428e-07
3.29186e-07
5.14361e-07
3.46417e-07
4.82959e-07
3.62514e-07
4.59641e-07
3.60179e-07
4.42965e-07
3.56447e-07
4.51028e-07
3.80968e-07
4.79013e-07
3.9145e-07
4.67487e-07
3.70593e-07
4.5415e-07
3.79227e-07
4.62048e-07
3.8454e-07
4.44801e-07
3.89518e-07
4.58477e-07
4.27793e-07
4.7483e-07
4.54643e-07
4.67627e-07
4.51029e-07
4.29812e-07
4.61716e-07
4.58772e-07
4.42121e-07
4.20531e-07
4.31704e-07
3.81875e-07
4.52129e-07
4.28954e-07
4.04167e-07
4.22267e-07
3.70525e-07
4.1776e-07
4.0044e-07
4.0825e-07
3.83747e-07
3.85547e-07
3.71214e-07
3.8653e-07
3.81038e-07
3.97369e-07
3.92111e-07
4.04241e-07
3.98237e-07
4.09167e-07
4.0622e-07
4.16381e-07
4.15606e-07
4.22809e-07
4.19273e-07
4.16206e-07
4.13232e-07
4.01204e-07
4.10497e-07
3.99259e-07
4.16198e-07
4.07492e-07
4.163e-07
4.05532e-07
4.11375e-07
3.96009e-07
4.23254e-07
3.86419e-07
4.5115e-07
3.94568e-07
4.66008e-07
4.23124e-07
4.88106e-07
4.56422e-07
5.00492e-07
5.44762e-07
5.52119e-07
7.41725e-07
7.69284e-07
1.05511e-06
1.38205e-06
1.65601e-06
2.79099e-06
2.72377e-06
4.88488e-06
4.7229e-06
7.06842e-06
7.53501e-06
9.0544e-06
1.09305e-05
1.15417e-05
1.35008e-05
1.47147e-05