/*--------------------------------*- C++ -*----------------------------------*\
| =========                 |                                                 |
| \\      /  F ield         | OpenFOAM: The Open Source CFD Toolbox           |
|  \\    /   O peration     | Version:  v2006                                 |
|   \\  /    A nd           | Website:  www.openfoam.com                      |
|    \\/     M anipulation  |                                                 |
\*---------------------------------------------------------------------------*/
FoamFile
{
    version     2.0;
    format      ascii;
    class       volScalarField;
    location    "100";
    object      p;
}
// * * * * * * * * * * * * * * * * * * * * * * * * * * * * * * * * * * * * * //

dimensions      [1 -1 -2 0 0 0 0];


internalField   nonuniform List<scalar> 
93840
(
1.00049
1.02066
0.997632
1.01227
0.998545
1.01451
1.00034
0.999724
1.0075
1.00569
1.00745
1.01313
1.0086
1.01794
1.01907
1.02848
1.03086
1.04049
1.043
1.0467
1.0506
1.05264
1.0534
1.05256
1.0498
1.04897
1.04664
1.04898
1.04394
1.04891
1.03936
1.06624
1.04029
1.0503
1.05324
1.05865
1.05997
1.0647
1.06583
1.06988
1.07068
1.07401
1.0744
1.07729
1.07781
1.08073
1.08151
1.08388
1.08435
1.08718
1.08751
1.08915
1.09054
1.09337
1.09305
1.09315
1.09411
1.09588
1.09681
1.0983
1.09913
1.09937
1.09959
1.10027
1.10049
1.1008
1.10059
1.10015
1.10019
1.09984
1.09954
1.09906
1.09862
1.09767
1.09687
1.09557
1.09448
1.09329
1.09188
1.09051
1.08922
1.0876
1.08583
1.08361
1.08147
1.07933
1.07711
1.07493
1.07267
1.07015
1.06701
1.06366
1.0603
1.05667
1.05287
1.04874
1.04461
1.04024
1.03574
1.03093
1.02592
1.02075
1.01549
1.00664
0.997317
0.993625
0.990778
0.9836
0.975697
0.967956
0.960257
0.952541
0.945149
0.936169
0.928151
0.920139
0.91317
0.904863
0.898824
0.892656
0.889023
0.884023
0.883282
0.879877
0.884367
0.889058
0.890068
0.897958
0.901779
0.90695
0.915943
0.920576
0.930647
0.933628
0.940997
0.94779
0.955672
0.960787
0.968161
0.973108
0.979095
0.984409
0.991803
0.99704
1.00295
1.00748
1.01367
1.01773
1.02441
1.03012
1.03672
1.04164
1.04882
1.0541
1.06152
1.06799
1.07598
1.082
1.09118
1.09841
1.10645
1.11286
1.12162
1.12949
1.13939
1.14854
1.16034
1.17044
1.18188
1.19238
1.20747
1.22144
1.23754
1.2512
1.26948
1.28765
1.30854
1.33237
1.35772
1.37977
1.39562
1.4096
1.38692
1.32814
1.21991
1.0938
0.955162
0.862456
0.817366
0.807238
0.728738
0.673731
0.628409
0.61322
0.59206
0.571964
0.570512
0.560175
0.560088
0.546676
0.551759
0.554416
0.553468
0.553403
0.55423
0.556828
0.557109
0.556971
0.557658
0.558378
0.558534
0.55903
0.559698
0.559614
0.560869
0.56211
0.562574
0.562078
0.562198
0.561028
0.560809
0.555138
0.556532
0.557683
0.559008
0.560237
0.561735
0.563081
0.565135
0.566761
0.564498
0.559284
0.557831
0.554386
0.551146
0.551818
0.550803
0.549738
0.54921
0.548433
0.547476
0.546972
0.545831
0.542556
0.541758
0.540146
0.539773
0.532847
0.536838
0.533266
0.523679
0.526377
0.519576
0.51973
0.524627
0.542407
0.606195
0.715958
0.777896
0.797654
0.808558
0.819325
0.828331
0.836463
0.84351
0.850497
0.856557
0.863321
0.871524
0.87973
0.88417
0.888798
0.895667
0.903578
0.908764
0.913102
0.918265
0.924377
0.929944
0.935124
0.940161
0.945077
0.949867
0.954493
0.959005
0.96335
0.967407
0.971333
0.975034
0.978671
0.982052
0.985358
0.988414
0.991402
0.994135
0.996811
0.999238
1.00164
1.00378
1.0059
1.00781
1.00966
1.01139
1.01299
1.01459
1.01597
1.01743
1.01849
1.01989
1.02078
1.02213
1.02268
1.02405
1.02443
1.02593
1.0259
1.02744
1.02737
1.02896
1.02838
1.03048
1.02946
1.03149
1.03015
1.03238
1.03074
1.03329
1.03165
1.03453
1.03211
1.03676
1.03106
1.03814
1.03175
1.03363
1.03149
1.03055
1.03751
1.04141
1.04453
1.04702
1.04966
1.05385
1.05366
1.05437
1.05452
1.05308
1.05053
1.04663
1.04317
1.0405
1.03131
1.02865
1.01898
1.01814
1.00886
1.01283
1.0075
1.00595
1.00866
0.999786
1.00047
1.01461
0.998631
1.01234
0.997348
1.0206
1.00041
1.00042
1.02047
0.997394
1.01227
0.998548
1.01469
1.00046
0.999807
1.00866
1.00589
1.00746
1.01288
1.00884
1.01803
1.01889
1.02875
1.03158
1.041
1.0427
1.0468
1.05034
1.05285
1.05412
1.05402
1.05329
1.05332
1.04859
1.04669
1.04466
1.04395
1.04244
1.04107
1.04544
1.05022
1.05293
1.05851
1.05893
1.06461
1.06456
1.06941
1.0695
1.07357
1.07361
1.07686
1.0773
1.08017
1.08086
1.08332
1.08391
1.08658
1.08699
1.08879
1.09003
1.09251
1.09231
1.09291
1.094
1.09567
1.09628
1.09773
1.0988
1.09897
1.0991
1.09985
1.10017
1.10041
1.10026
1.09988
1.09993
1.09954
1.09931
1.0988
1.09841
1.09749
1.09665
1.09538
1.09429
1.0931
1.09173
1.09038
1.08908
1.08745
1.08568
1.08348
1.08136
1.07923
1.07702
1.07483
1.07255
1.07002
1.06691
1.06358
1.06023
1.0566
1.05281
1.0487
1.04458
1.04021
1.03571
1.03092
1.02592
1.02072
1.01542
1.00673
0.997614
0.993782
0.990725
0.98361
0.975831
0.96813
0.960466
0.952769
0.94538
0.936466
0.928533
0.920555
0.913595
0.905385
0.899409
0.893297
0.889658
0.884777
0.884104
0.880706
0.885072
0.88974
0.890924
0.898446
0.902569
0.907644
0.916557
0.921118
0.931225
0.934008
0.941685
0.948162
0.956203
0.961068
0.968621
0.973453
0.979705
0.984934
0.992272
0.997631
1.00358
1.00813
1.01437
1.01848
1.02517
1.03073
1.0374
1.04248
1.04974
1.05505
1.06265
1.06906
1.07726
1.08323
1.09241
1.09957
1.10793
1.11482
1.12382
1.13184
1.14167
1.15107
1.16294
1.17337
1.1857
1.19694
1.2116
1.22541
1.24295
1.25748
1.27495
1.29292
1.31157
1.33181
1.34938
1.36588
1.37208
1.39243
1.37652
1.33253
1.2641
1.16845
1.05329
0.956193
0.886808
0.848929
0.773696
0.72158
0.67075
0.643171
0.618193
0.588953
0.586408
0.574019
0.570539
0.557027
0.559782
0.559759
0.558007
0.558066
0.558245
0.559749
0.560097
0.559864
0.560638
0.561307
0.560605
0.560411
0.561065
0.561624
0.56277
0.563408
0.563546
0.563622
0.563919
0.561946
0.5623
0.556284
0.557199
0.55826
0.559586
0.560774
0.562283
0.563563
0.565594
0.567283
0.56504
0.560146
0.558532
0.555086
0.551549
0.552148
0.551253
0.550486
0.549451
0.548558
0.548133
0.547777
0.545967
0.543007
0.542236
0.540412
0.540056
0.533273
0.5371
0.533784
0.52414
0.52689
0.51997
0.520105
0.524727
0.543705
0.607137
0.71536
0.778312
0.797518
0.808432
0.819286
0.828358
0.836513
0.843563
0.850554
0.856659
0.863456
0.871568
0.879683
0.884216
0.88897
0.895782
0.903562
0.908764
0.913202
0.918387
0.924449
0.929993
0.935183
0.940228
0.945145
0.949934
0.954561
0.959065
0.963402
0.967459
0.971388
0.975089
0.978723
0.982104
0.985409
0.988465
0.991453
0.994187
0.996861
0.999288
1.00169
1.00383
1.00595
1.00786
1.0097
1.01144
1.01304
1.01464
1.01601
1.01747
1.01853
1.01993
1.02082
1.02218
1.02272
1.02409
1.02447
1.02596
1.02594
1.02751
1.02743
1.02905
1.02834
1.03038
1.02948
1.03143
1.03045
1.03273
1.03085
1.03391
1.03112
1.03402
1.03179
1.03506
1.03133
1.03714
1.03254
1.03972
1.02857
1.04247
1.03519
1.0428
1.04077
1.04534
1.04489
1.048
1.04914
1.0522
1.0533
1.05258
1.05061
1.04662
1.04327
1.04007
1.03073
1.02835
1.01913
1.01797
1.00854
1.01307
1.00747
1.00569
1.00747
0.999683
1.00033
1.01457
0.99847
1.01229
0.997682
1.02072
1.00068
1.00039
1.02058
0.997432
1.01224
0.998648
1.01445
1.00037
0.999742
1.00753
1.00571
1.00751
1.01321
1.00855
1.018
1.0191
1.02873
1.03131
1.04068
1.04246
1.0471
1.05035
1.05263
1.05332
1.05295
1.05033
1.05004
1.0487
1.05167
1.04693
1.05345
1.04613
1.05905
1.04688
1.05786
1.05325
1.06141
1.05918
1.06564
1.06455
1.06986
1.06931
1.07359
1.07347
1.07671
1.07712
1.07999
1.08059
1.08312
1.08364
1.08623
1.08682
1.08854
1.08985
1.09232
1.09204
1.09272
1.09382
1.0955
1.09603
1.09756
1.09854
1.09882
1.09884
1.09966
1.09998
1.10023
1.10006
1.09977
1.09972
1.09941
1.09916
1.09872
1.0983
1.09731
1.09652
1.09528
1.09418
1.09299
1.09163
1.09029
1.08899
1.08737
1.08559
1.0834
1.08128
1.07916
1.07695
1.07477
1.07248
1.06995
1.06685
1.06354
1.06018
1.05655
1.05277
1.04867
1.04455
1.04018
1.03569
1.03091
1.02592
1.02071
1.01538
1.00675
0.997742
0.993879
0.990722
0.983634
0.975907
0.968226
0.960583
0.952909
0.945518
0.936652
0.928752
0.920804
0.913872
0.905693
0.899779
0.893663
0.890065
0.885248
0.884528
0.88137
0.885806
0.890345
0.891391
0.89903
0.902804
0.908243
0.91691
0.921617
0.931433
0.934699
0.941868
0.948817
0.956451
0.961695
0.968958
0.974057
0.980007
0.985376
0.992685
0.997766
1.0037
1.00828
1.01468
1.01885
1.02574
1.03144
1.03831
1.043
1.0503
1.05568
1.06321
1.06986
1.07797
1.08426
1.0933
1.10043
1.10868
1.11539
1.1244
1.13259
1.14302
1.15222
1.16401
1.17424
1.18606
1.19714
1.21237
1.22641
1.24223
1.25669
1.27502
1.29305
1.31424
1.33567
1.35725
1.37872
1.3854
1.40407
1.37878
1.33952
1.26021
1.16886
1.0486
0.960154
0.891217
0.859383
0.784243
0.728217
0.675948
0.652562
0.629284
0.597492
0.591881
0.576841
0.575778
0.561439
0.561875
0.563417
0.562664
0.560332
0.560498
0.562676
0.5626
0.561671
0.562048
0.561938
0.561823
0.56231
0.562908
0.562345
0.563206
0.564443
0.56478
0.564099
0.563663
0.563482
0.562536
0.556636
0.557974
0.558903
0.559958
0.56115
0.56262
0.563899
0.565983
0.56747
0.565754
0.560462
0.558813
0.555441
0.551994
0.552659
0.551383
0.550186
0.54989
0.549171
0.548265
0.547303
0.546643
0.543053
0.542229
0.540785
0.540815
0.533307
0.537007
0.534315
0.524416
0.526774
0.520513
0.520406
0.524859
0.543077
0.60588
0.71549
0.779106
0.798069
0.808543
0.819365
0.828456
0.836615
0.843646
0.85063
0.856738
0.863535
0.871618
0.879703
0.884267
0.889043
0.895827
0.903574
0.908786
0.913253
0.918441
0.924488
0.93003
0.93522
0.940261
0.945175
0.949959
0.954581
0.959084
0.963419
0.967478
0.971406
0.975108
0.978744
0.982125
0.98543
0.988484
0.991469
0.994201
0.996876
0.999305
1.00171
1.00385
1.00597
1.00788
1.00973
1.01146
1.01306
1.01466
1.01603
1.01749
1.01856
1.01995
1.02084
1.02219
1.02274
1.02411
1.02449
1.02597
1.02596
1.02753
1.02743
1.02906
1.02838
1.03039
1.02954
1.03149
1.03045
1.03273
1.03079
1.03392
1.03121
1.03395
1.03225
1.03481
1.03185
1.03739
1.03363
1.03876
1.03233
1.03976
1.03753
1.04155
1.043
1.04652
1.04924
1.05325
1.0535
1.05453
1.05492
1.05336
1.05064
1.04672
1.04358
1.0396
1.03117
1.02858
1.01912
1.01827
1.00888
1.01279
1.00751
1.00595
1.00872
0.99987
1.00049
1.01469
0.998547
1.01227
0.997678
1.0205
1.00052
1.00064
1.02023
0.997439
1.01232
0.998634
1.01455
1.00046
0.999778
1.00862
1.00587
1.00747
1.01292
1.00878
1.01801
1.01887
1.02906
1.0317
1.04088
1.04235
1.04711
1.05026
1.05267
1.05392
1.054
1.05324
1.05349
1.04958
1.04879
1.04667
1.04719
1.04639
1.04813
1.04991
1.05332
1.0546
1.05906
1.05977
1.06407
1.06496
1.0685
1.06935
1.07272
1.0732
1.07619
1.07673
1.07957
1.08
1.08279
1.08313
1.08581
1.08624
1.08826
1.0893
1.09177
1.09148
1.09247
1.09364
1.09518
1.09556
1.09708
1.0982
1.09843
1.09846
1.09924
1.09965
1.09984
1.09977
1.09947
1.09948
1.0991
1.09895
1.09846
1.09815
1.09716
1.09629
1.09508
1.094
1.0928
1.0915
1.09016
1.08886
1.08723
1.08544
1.08327
1.08117
1.07906
1.07687
1.07468
1.07237
1.06984
1.06677
1.06347
1.06012
1.05649
1.05273
1.04864
1.04452
1.04015
1.03567
1.0309
1.02592
1.02069
1.01536
1.00684
0.997983
0.994026
0.99071
0.983665
0.97605
0.968405
0.960799
0.953149
0.945765
0.936938
0.929132
0.921215
0.914282
0.906216
0.900322
0.894292
0.890636
0.885941
0.885347
0.881924
0.886187
0.890736
0.892106
0.899151
0.903619
0.908668
0.917494
0.921921
0.932135
0.934675
0.942596
0.948912
0.956856
0.961715
0.969207
0.974116
0.980476
0.985662
0.992905
0.998393
1.00441
1.00898
1.0153
1.01952
1.02625
1.03166
1.03848
1.04366
1.05097
1.05641
1.06421
1.0705
1.07896
1.08489
1.09402
1.10117
1.1098
1.11699
1.1263
1.13452
1.14431
1.15393
1.16566
1.17623
1.18884
1.20072
1.21519
1.22879
1.24608
1.2607
1.27849
1.29621
1.31597
1.33567
1.35561
1.37141
1.38393
1.39205
1.37394
1.34716
1.2796
1.20109
1.10161
1.0138
0.936786
0.889168
0.814733
0.761923
0.705597
0.676474
0.643911
0.611372
0.606038
0.586673
0.583975
0.568695
0.567784
0.567322
0.566369
0.565391
0.564447
0.564775
0.564329
0.564361
0.564749
0.564365
0.564015
0.564069
0.564123
0.564323
0.564976
0.565568
0.565672
0.56584
0.56572
0.56389
0.564392
0.558019
0.558517
0.559349
0.56059
0.561728
0.563231
0.564431
0.566473
0.568022
0.566158
0.561453
0.559656
0.556097
0.552313
0.552861
0.551987
0.551084
0.550104
0.549257
0.549207
0.548133
0.546447
0.543836
0.542919
0.541043
0.540667
0.533857
0.537458
0.534637
0.524905
0.527674
0.520538
0.520758
0.525163
0.542264
0.60522
0.716408
0.780824
0.798506
0.808619
0.819412
0.828545
0.836692
0.843724
0.850699
0.856836
0.863663
0.87167
0.879683
0.884315
0.889201
0.895948
0.90359
0.90881
0.913348
0.918553
0.924563
0.930081
0.935277
0.940332
0.945248
0.950036
0.954665
0.95916
0.963488
0.967543
0.971472
0.975171
0.9788
0.982181
0.985485
0.98854
0.99153
0.994265
0.996943
0.99937
1.00177
1.00391
1.00602
1.00793
1.00978
1.01152
1.01312
1.01472
1.01609
1.01754
1.01861
1.02001
1.02089
1.02224
1.02279
1.02416
1.02453
1.02602
1.02601
1.02754
1.02746
1.02908
1.02848
1.03057
1.02955
1.03154
1.03034
1.03243
1.03088
1.03366
1.0316
1.03517
1.03231
1.03584
1.03145
1.03686
1.03302
1.03929
1.03189
1.04126
1.03686
1.04191
1.04084
1.04443
1.0445
1.048
1.04894
1.05219
1.05351
1.05272
1.05056
1.04668
1.04339
1.03947
1.03069
1.02853
1.01924
1.01798
1.00848
1.013
1.00744
1.00573
1.00746
0.9993
1.00029
1.0145
0.998397
1.01235
0.99751
1.02081
1.00078
1.00061
1.02055
0.997403
1.01218
0.998604
1.01448
1.0004
0.999739
1.00757
1.00576
1.00763
1.01328
1.00853
1.01801
1.0191
1.02882
1.0317
1.04062
1.04223
1.04729
1.05013
1.05258
1.05321
1.0533
1.05065
1.05103
1.04948
1.05265
1.04907
1.0551
1.04916
1.0577
1.05066
1.05958
1.05498
1.06257
1.05978
1.06605
1.06462
1.06959
1.06911
1.07302
1.07308
1.0762
1.07654
1.07947
1.0797
1.08262
1.08281
1.08542
1.08608
1.08795
1.08912
1.09156
1.09121
1.09222
1.09341
1.09497
1.09527
1.09688
1.09788
1.09827
1.09816
1.09902
1.09941
1.09962
1.09952
1.09935
1.09924
1.09893
1.09874
1.09835
1.09798
1.09696
1.09613
1.09493
1.09385
1.09266
1.09137
1.09005
1.08875
1.08711
1.08531
1.08315
1.08107
1.07897
1.07678
1.07458
1.07227
1.06975
1.0667
1.06341
1.06004
1.05641
1.05266
1.04859
1.04446
1.0401
1.03565
1.03089
1.02591
1.02068
1.0153
1.00685
0.998158
0.994156
0.990703
0.983702
0.976149
0.96853
0.960953
0.953336
0.945946
0.937197
0.929424
0.921554
0.914667
0.906616
0.900831
0.894767
0.891197
0.886566
0.885843
0.8829
0.887317
0.891683
0.892766
0.900152
0.903957
0.909513
0.917912
0.922687
0.932265
0.935679
0.942922
0.949658
0.957403
0.962462
0.969848
0.974948
0.980981
0.986326
0.993578
0.998584
1.00447
1.00912
1.01567
1.01996
1.02704
1.03264
1.03975
1.04422
1.0516
1.05702
1.06467
1.07137
1.07962
1.08607
1.09501
1.1021
1.11053
1.11747
1.12652
1.13495
1.1456
1.15477
1.16658
1.17693
1.18885
1.20029
1.2154
1.22937
1.24485
1.25952
1.27759
1.29482
1.31469
1.33373
1.35324
1.37023
1.38005
1.3883
1.36757
1.33481
1.26879
1.19541
1.09205
1.01348
0.936347
0.892791
0.822195
0.766656
0.712492
0.684754
0.655374
0.620648
0.610518
0.592067
0.587846
0.57144
0.572823
0.570949
0.569976
0.568288
0.567051
0.567775
0.567201
0.566406
0.566077
0.566077
0.565732
0.565211
0.56553
0.565443
0.565987
0.566668
0.566936
0.566558
0.566271
0.565544
0.564415
0.558854
0.55954
0.560137
0.561144
0.562309
0.563695
0.564873
0.566981
0.56831
0.566986
0.561893
0.560015
0.556609
0.55291
0.553395
0.552027
0.551371
0.550497
0.549458
0.549156
0.548664
0.547206
0.543632
0.542932
0.541555
0.541669
0.533911
0.537449
0.535475
0.525142
0.527435
0.52141
0.521237
0.525266
0.54159
0.603985
0.716264
0.782261
0.799454
0.808974
0.819605
0.828705
0.836857
0.843856
0.850827
0.856969
0.863782
0.871751
0.87972
0.884395
0.889293
0.895992
0.903597
0.908836
0.913413
0.91862
0.924611
0.930133
0.93533
0.940369
0.94528
0.950053
0.954665
0.95916
0.963488
0.967549
0.971479
0.975185
0.978819
0.982197
0.985503
0.988555
0.991534
0.994263
0.996935
0.999365
1.00177
1.00391
1.00603
1.00795
1.0098
1.01153
1.01313
1.01473
1.01609
1.01755
1.01862
1.02001
1.02089
1.02224
1.02281
1.02417
1.02453
1.02602
1.02602
1.02755
1.02747
1.02909
1.0285
1.03057
1.02951
1.03157
1.03045
1.03249
1.03112
1.03376
1.03149
1.03528
1.03248
1.03558
1.03247
1.03626
1.03405
1.0384
1.03506
1.04027
1.03748
1.04249
1.04218
1.04555
1.04788
1.0519
1.05249
1.05444
1.05503
1.05348
1.05069
1.0466
1.04397
1.03933
1.03095
1.02868
1.01922
1.01833
1.00902
1.01279
1.00755
1.00597
1.00877
1.00006
1.00049
1.01483
0.998481
1.01244
0.997657
1.0207
1.00089
1.0004
1.02003
0.99744
1.01239
0.998869
1.01455
1.00043
0.999756
1.00868
1.00586
1.00731
1.01298
1.00866
1.01807
1.01885
1.02958
1.03185
1.04053
1.04211
1.04754
1.04994
1.05274
1.0537
1.0541
1.05319
1.05389
1.05032
1.0506
1.04869
1.05011
1.0496
1.0518
1.0528
1.0554
1.05673
1.05978
1.06095
1.06417
1.06511
1.06853
1.06884
1.07255
1.07261
1.07578
1.07613
1.07899
1.07918
1.08215
1.08233
1.08483
1.08556
1.08753
1.08861
1.09107
1.09067
1.0919
1.09309
1.09459
1.09469
1.09644
1.09741
1.09786
1.09774
1.09853
1.09904
1.09919
1.09922
1.09901
1.09892
1.09858
1.09844
1.09804
1.09777
1.09677
1.09586
1.09468
1.0936
1.09244
1.0912
1.08988
1.08859
1.08693
1.08513
1.08299
1.08093
1.07885
1.07667
1.07445
1.07212
1.0696
1.06658
1.0633
1.05994
1.05633
1.05261
1.04854
1.04441
1.04005
1.0356
1.03086
1.02588
1.02066
1.01529
1.00693
0.998383
0.994322
0.990706
0.983734
0.976307
0.968731
0.961204
0.953619
0.94624
0.937517
0.929871
0.92204
0.915143
0.907243
0.901447
0.895509
0.891835
0.88734
0.886837
0.883435
0.887653
0.891943
0.89348
0.900136
0.904837
0.909812
0.918669
0.922936
0.93317
0.935677
0.943659
0.949876
0.957724
0.962576
0.969926
0.974983
0.981247
0.986564
0.993572
0.999203
1.00528
1.0099
1.01631
1.02073
1.02743
1.03278
1.03969
1.045
1.0523
1.05788
1.06581
1.07208
1.08066
1.08666
1.09568
1.10286
1.11163
1.11897
1.12861
1.13705
1.14694
1.15672
1.16814
1.17893
1.19153
1.20367
1.21791
1.23145
1.24805
1.26261
1.2799
1.29695
1.31511
1.33328
1.35039
1.36425
1.37436
1.38289
1.36143
1.34243
1.28426
1.21946
1.13165
1.05361
0.975904
0.923472
0.853521
0.799299
0.742376
0.707613
0.6695
0.635538
0.626222
0.602409
0.598383
0.579816
0.576686
0.575403
0.575061
0.57008
0.568978
0.568986
0.569487
0.568964
0.568372
0.567976
0.567952
0.567918
0.567698
0.566985
0.567284
0.567797
0.568123
0.568376
0.567268
0.566427
0.566926
0.560029
0.56026
0.560862
0.561927
0.562959
0.564412
0.565528
0.56751
0.568939
0.567577
0.563014
0.561005
0.557328
0.55344
0.553879
0.552721
0.55161
0.551407
0.550363
0.54983
0.548419
0.54774
0.544851
0.543779
0.541978
0.541464
0.534739
0.538024
0.535706
0.525981
0.528421
0.521504
0.521596
0.525091
0.540902
0.602927
0.716791
0.784244
0.80048
0.809244
0.819777
0.828912
0.837012
0.844006
0.850947
0.857106
0.863936
0.871808
0.879723
0.884467
0.889468
0.896127
0.903634
0.90889
0.913517
0.918728
0.92468
0.930172
0.935368
0.940429
0.945344
0.950128
0.954756
0.959241
0.963558
0.967609
0.971536
0.975232
0.978854
0.982233
0.985535
0.98859
0.991583
0.99432
0.997002
0.999428
1.00182
1.00396
1.00607
1.00798
1.00984
1.01157
1.01319
1.01478
1.01615
1.01759
1.01868
1.02006
1.02094
1.02227
1.02285
1.0242
1.02457
1.02604
1.02606
1.0276
1.02751
1.02911
1.02855
1.03052
1.02962
1.03168
1.03054
1.03282
1.03118
1.03372
1.03153
1.03457
1.03255
1.03615
1.0331
1.0375
1.03372
1.03909
1.03575
1.04085
1.03791
1.04303
1.04169
1.04522
1.04505
1.04837
1.04873
1.05218
1.05375
1.05301
1.05044
1.04688
1.04319
1.03945
1.03094
1.02861
1.01938
1.01797
1.00846
1.01295
1.00733
1.00573
1.00745
0.999285
1.00025
1.01445
0.998281
1.01219
0.997553
1.02085
1.00082
1.00049
1.02069
0.997698
1.01233
0.998677
1.0143
1.00044
0.999689
1.00762
1.00582
1.00764
1.01335
1.0085
1.01806
1.01937
1.02923
1.03179
1.04033
1.04192
1.0476
1.04977
1.05261
1.05308
1.05369
1.05103
1.05204
1.05046
1.05366
1.05073
1.05583
1.05159
1.05786
1.05356
1.06024
1.05693
1.06319
1.06078
1.06646
1.06484
1.06975
1.06877
1.07302
1.0725
1.07602
1.07593
1.07898
1.07893
1.08194
1.08204
1.08442
1.08535
1.08722
1.08841
1.09084
1.0904
1.09157
1.09282
1.09433
1.0944
1.09614
1.09704
1.09767
1.09744
1.0983
1.09875
1.09892
1.09895
1.09883
1.09869
1.09837
1.09821
1.09789
1.09755
1.09656
1.09566
1.09447
1.09343
1.09227
1.09104
1.08975
1.08844
1.08679
1.08497
1.08284
1.0808
1.07873
1.07655
1.07433
1.072
1.06949
1.06649
1.06323
1.05984
1.05623
1.05252
1.04847
1.04434
1.04
1.03558
1.03084
1.02587
1.02065
1.01521
1.00694
0.998606
0.994482
0.9907
0.983791
0.976433
0.968888
0.961395
0.95385
0.946461
0.937844
0.930227
0.922457
0.915623
0.907714
0.902067
0.896061
0.892515
0.888089
0.887318
0.884554
0.889034
0.89314
0.894323
0.901392
0.905361
0.910836
0.919057
0.923816
0.933206
0.93665
0.944102
0.950521
0.958301
0.963309
0.970642
0.975877
0.981876
0.987245
0.994481
0.999477
1.00534
1.01008
1.0167
1.02118
1.02836
1.03388
1.0411
1.04554
1.05298
1.05843
1.06611
1.07289
1.08127
1.08786
1.0967
1.10378
1.11241
1.1197
1.12873
1.13722
1.14788
1.15707
1.16893
1.1794
1.19139
1.20307
1.21776
1.23146
1.24666
1.26122
1.2785
1.29475
1.31302
1.33018
1.34694
1.361
1.36716
1.37573
1.35177
1.32596
1.26819
1.21177
1.12213
1.05054
0.973949
0.925431
0.857921
0.804577
0.748333
0.712849
0.679494
0.64514
0.629339
0.607171
0.600913
0.583495
0.584629
0.579082
0.577934
0.575031
0.572975
0.57171
0.571978
0.571021
0.57054
0.570122
0.569819
0.568649
0.569365
0.568975
0.568748
0.568755
0.569243
0.569033
0.569085
0.56762
0.566704
0.561612
0.56133
0.561554
0.562506
0.563628
0.564944
0.566017
0.568023
0.569419
0.568395
0.563621
0.561676
0.557847
0.554013
0.554312
0.553033
0.552596
0.551322
0.550384
0.550196
0.549913
0.54772
0.544881
0.543923
0.54265
0.542561
0.534843
0.53811
0.536771
0.526032
0.528281
0.522588
0.522143
0.525226
0.540079
0.601056
0.717027
0.786386
0.802084
0.809778
0.820072
0.829165
0.837263
0.844194
0.851134
0.857304
0.864109
0.871938
0.879785
0.884578
0.889582
0.896181
0.903645
0.908918
0.9136
0.918816
0.924747
0.930254
0.935451
0.940481
0.945386
0.950145
0.954742
0.959228
0.963549
0.96761
0.97154
0.975251
0.978884
0.982259
0.985563
0.988611
0.991584
0.994308
0.996976
0.999407
1.00182
1.00396
1.00608
1.00801
1.00986
1.01159
1.01319
1.01478
1.01614
1.01759
1.01868
1.02006
1.02094
1.02228
1.02286
1.0242
1.02457
1.02603
1.02606
1.0276
1.02749
1.02911
1.02859
1.03052
1.02966
1.03173
1.03052
1.03284
1.03131
1.03372
1.03197
1.03488
1.03256
1.03614
1.03385
1.03753
1.03436
1.03858
1.03719
1.04084
1.03868
1.04326
1.04258
1.04603
1.04674
1.05049
1.05145
1.05418
1.05506
1.0538
1.05058
1.04677
1.0434
1.03947
1.03108
1.02883
1.01935
1.01841
1.00921
1.01276
1.00765
1.00588
1.00877
1.0001
1.00047
1.01481
0.998492
1.01242
0.997658
1.02095
1.00103
1.00064
1.01987
0.996987
1.01207
0.998839
1.01445
1.00043
0.999762
1.00863
1.00591
1.00747
1.01301
1.00862
1.01807
1.019
1.02979
1.03182
1.04029
1.04243
1.0476
1.04971
1.05284
1.05359
1.05425
1.05313
1.05441
1.05108
1.05215
1.05067
1.05232
1.05213
1.05427
1.05492
1.05724
1.0582
1.06079
1.06174
1.06474
1.0653
1.06863
1.06885
1.07207
1.07259
1.07512
1.07584
1.07827
1.07855
1.08134
1.08152
1.08389
1.0847
1.08678
1.08786
1.09041
1.08988
1.09113
1.09243
1.0939
1.09378
1.09568
1.09652
1.09723
1.0969
1.09781
1.09831
1.09846
1.09861
1.09848
1.09831
1.09798
1.09777
1.09753
1.09723
1.09633
1.09539
1.09418
1.09312
1.09201
1.09083
1.08953
1.08823
1.08655
1.08474
1.08264
1.08063
1.07857
1.07639
1.07415
1.07181
1.06931
1.06633
1.06306
1.0597
1.05613
1.05245
1.04839
1.04426
1.03993
1.03551
1.03077
1.02582
1.02063
1.0152
1.00701
0.998813
0.994663
0.99072
0.983827
0.976604
0.969111
0.961679
0.954172
0.946803
0.938199
0.93074
0.923015
0.916154
0.908422
0.902724
0.896881
0.893154
0.888867
0.888493
0.885176
0.889327
0.893353
0.895042
0.901318
0.906192
0.911042
0.919878
0.924132
0.934134
0.93683
0.94477
0.950786
0.958831
0.963337
0.970847
0.975836
0.982084
0.987552
0.994244
0.999975
1.00612
1.0108
1.01732
1.02199
1.02866
1.03401
1.04096
1.04641
1.05369
1.05937
1.06738
1.0738
1.08229
1.08846
1.09738
1.10454
1.11339
1.12088
1.1307
1.13929
1.14945
1.15934
1.1704
1.18132
1.1937
1.20581
1.21983
1.23343
1.24895
1.26341
1.27994
1.29609
1.31247
1.32872
1.34329
1.35513
1.3612
1.37
1.34837
1.32554
1.28149
1.2275
1.15231
1.08092
1.00725
0.953334
0.885647
0.832839
0.77665
0.737277
0.697544
0.658664
0.644969
0.619768
0.61315
0.596027
0.587108
0.581872
0.58299
0.578089
0.575363
0.574845
0.57249
0.572839
0.572064
0.57202
0.572302
0.571157
0.570299
0.570221
0.570671
0.570285
0.570557
0.57014
0.569776
0.568991
0.569411
0.56211
0.561845
0.56233
0.56342
0.564266
0.565668
0.566601
0.568501
0.570053
0.569081
0.56479
0.56244
0.558926
0.554614
0.555
0.553603
0.552723
0.552351
0.551248
0.550487
0.549875
0.548956
0.545572
0.544776
0.542858
0.542676
0.535837
0.538641
0.536885
0.527221
0.529205
0.522745
0.522566
0.525146
0.539077
0.598754
0.717654
0.789543
0.803227
0.809979
0.820237
0.829474
0.837515
0.844431
0.851314
0.857488
0.864296
0.872006
0.879817
0.884679
0.889781
0.896337
0.903709
0.909005
0.913715
0.918922
0.924812
0.930277
0.93547
0.940532
0.945441
0.950219
0.954844
0.959313
0.963619
0.967665
0.971589
0.975279
0.978892
0.982271
0.985568
0.988622
0.991619
0.994358
0.997047
0.999471
1.00186
1.004
1.0061
1.00802
1.00988
1.01161
1.01324
1.01482
1.0162
1.01763
1.01874
1.02009
1.02098
1.0223
1.0229
1.02422
1.02461
1.02604
1.02612
1.02761
1.02754
1.02915
1.02865
1.03057
1.02974
1.0317
1.03064
1.03281
1.03139
1.03401
1.03219
1.03523
1.0328
1.03588
1.03401
1.03782
1.03473
1.03905
1.03705
1.04127
1.0391
1.04306
1.04229
1.04581
1.04598
1.04911
1.04892
1.05226
1.05397
1.05337
1.0503
1.04709
1.04269
1.03955
1.03127
1.0289
1.01959
1.01803
1.00842
1.01289
1.00736
1.00572
1.00746
0.999232
1.00022
1.01445
0.998211
1.01231
0.997653
1.02077
1.00095
1.00063
1.0205
0.997622
1.01237
0.998778
1.01435
1.00046
0.999664
1.00764
1.00582
1.00769
1.01343
1.00844
1.01812
1.01935
1.02958
1.03169
1.04004
1.04219
1.04755
1.04962
1.05255
1.05299
1.05387
1.05147
1.05287
1.05146
1.05465
1.05231
1.05646
1.05362
1.05849
1.05566
1.06089
1.05841
1.06375
1.06175
1.06685
1.06525
1.06986
1.06878
1.07284
1.07238
1.07561
1.07557
1.07838
1.07831
1.08115
1.08129
1.08354
1.08434
1.08644
1.08765
1.09011
1.08961
1.0907
1.09217
1.09355
1.09349
1.09528
1.09612
1.09697
1.0966
1.09756
1.09793
1.09814
1.0983
1.09822
1.09806
1.09773
1.09755
1.09731
1.09695
1.09608
1.09513
1.09393
1.0929
1.0918
1.09065
1.08936
1.08804
1.08637
1.08455
1.08246
1.08048
1.07842
1.07623
1.07399
1.07167
1.06919
1.06623
1.06297
1.05958
1.05601
1.05232
1.04829
1.04416
1.03987
1.03548
1.03075
1.02581
1.02063
1.01511
1.00701
0.999077
0.994851
0.990719
0.983906
0.976759
0.969299
0.961907
0.954448
0.947063
0.938593
0.931158
0.92354
0.91666
0.909086
0.90328
0.897655
0.893713
0.889704
0.888933
0.886254
0.890723
0.89462
0.895994
0.902644
0.906894
0.91224
0.92026
0.925019
0.934178
0.937707
0.945257
0.951491
0.959154
0.964203
0.971436
0.976766
0.982721
0.988142
0.995445
1.00043
1.00641
1.01119
1.01785
1.02239
1.02964
1.03505
1.0424
1.04689
1.05447
1.05989
1.06763
1.07447
1.08289
1.08955
1.09834
1.10541
1.11421
1.1219
1.13092
1.13947
1.14995
1.15917
1.17089
1.18157
1.19362
1.20534
1.21929
1.23257
1.24758
1.26176
1.27802
1.2931
1.30956
1.32479
1.33879
1.35088
1.35484
1.36218
1.34112
1.31947
1.26703
1.22095
1.14303
1.07629
1.00307
0.95434
0.88762
0.835832
0.780625
0.743677
0.706071
0.668339
0.648913
0.624645
0.6153
0.599253
0.595994
0.58466
0.584061
0.581772
0.580025
0.576818
0.57695
0.576048
0.574426
0.573003
0.573466
0.573122
0.572803
0.571401
0.571368
0.57175
0.571962
0.571329
0.570918
0.569914
0.569692
0.564417
0.563036
0.563074
0.563812
0.564957
0.566243
0.567156
0.568941
0.570428
0.570166
0.565498
0.563309
0.559223
0.555254
0.555284
0.554255
0.553325
0.552673
0.551826
0.551309
0.550037
0.548796
0.5464
0.54518
0.543648
0.543543
0.536148
0.538665
0.538068
0.527318
0.529301
0.523839
0.523067
0.525266
0.538015
0.596082
0.71795
0.793221
0.805183
0.810566
0.820573
0.82983
0.837878
0.844694
0.851571
0.85776
0.864535
0.872191
0.879908
0.884825
0.889919
0.896405
0.903728
0.909041
0.913818
0.919034
0.924901
0.930394
0.935587
0.9406
0.945496
0.950236
0.954812
0.959286
0.9636
0.967661
0.971589
0.975304
0.978935
0.982304
0.985607
0.98865
0.991615
0.994332
0.996996
0.999429
1.00185
1.00399
1.00613
1.00805
1.00991
1.01162
1.01324
1.01481
1.01618
1.01762
1.01873
1.0201
1.02098
1.02231
1.02291
1.02423
1.02461
1.02603
1.02611
1.0276
1.02753
1.02914
1.02866
1.03059
1.02978
1.03174
1.03075
1.03293
1.0315
1.03401
1.0324
1.03527
1.03328
1.03613
1.03438
1.03778
1.03563
1.03916
1.03746
1.04117
1.04014
1.04339
1.0427
1.04628
1.04655
1.05001
1.05016
1.05404
1.05505
1.05387
1.05044
1.04708
1.04283
1.03976
1.03146
1.02903
1.01944
1.01852
1.00923
1.01273
1.00762
1.00587
1.00874
1.00019
1.00048
1.01487
0.998375
1.01243
0.997611
1.0209
1.00095
1.00067
1.01974
0.997107
1.01218
0.998753
1.01436
1.00043
0.999695
1.00865
1.00596
1.00738
1.01305
1.00861
1.01811
1.019
1.02983
1.03191
1.0401
1.04297
1.04736
1.04966
1.05286
1.05363
1.05446
1.05323
1.05514
1.05216
1.05349
1.05244
1.0542
1.05409
1.05622
1.05652
1.05861
1.05942
1.06174
1.06267
1.06516
1.0658
1.06858
1.06907
1.07173
1.07242
1.07478
1.07528
1.07778
1.0779
1.08049
1.08087
1.08302
1.08373
1.08578
1.08714
1.08967
1.08912
1.09024
1.09171
1.09312
1.09291
1.09469
1.0956
1.09641
1.096
1.09704
1.09739
1.09764
1.09786
1.09781
1.09762
1.09728
1.097
1.09692
1.09655
1.09575
1.09485
1.09362
1.09257
1.09151
1.09037
1.08909
1.08777
1.08608
1.08427
1.08223
1.08027
1.07821
1.07602
1.07378
1.07145
1.06897
1.06601
1.06275
1.05941
1.05589
1.05223
1.04818
1.04406
1.03978
1.03538
1.03066
1.02574
1.02059
1.01511
1.00708
0.999266
0.995041
0.990765
0.983954
0.976948
0.969552
0.96223
0.954807
0.947436
0.939037
0.931674
0.92417
0.91726
0.909825
0.90394
0.89844
0.894425
0.890932
0.889658
0.886982
0.891065
0.894948
0.896723
0.902606
0.907659
0.912395
0.92109
0.92538
0.935084
0.93794
0.945746
0.95182
0.959792
0.964201
0.97184
0.976774
0.983146
0.988559
0.995068
1.00078
1.00705
1.01177
1.01832
1.02331
1.02994
1.03534
1.04226
1.04789
1.05516
1.06088
1.06884
1.07552
1.08383
1.09027
1.09911
1.10627
1.11515
1.12278
1.1326
1.14125
1.15171
1.16156
1.17252
1.18342
1.19546
1.20726
1.22101
1.23455
1.24917
1.26307
1.27872
1.29353
1.30841
1.32256
1.3349
1.34499
1.34935
1.35637
1.33592
1.31644
1.27614
1.22903
1.16631
1.10124
1.03213
0.978358
0.913011
0.861436
0.805569
0.768057
0.723463
0.682336
0.668114
0.636972
0.627343
0.609334
0.600685