/*--------------------------------*- C++ -*----------------------------------*\
| =========                 |                                                 |
| \\      /  F ield         | OpenFOAM: The Open Source CFD Toolbox           |
|  \\    /   O peration     | Version:  v2006                                 |
|   \\  /    A nd           | Website:  www.openfoam.com                      |
|    \\/     M anipulation  |                                                 |
\*---------------------------------------------------------------------------*/
FoamFile
{
    version     2.0;
    format      ascii;
    class       volScalarField;
    location    "100";
    object      rho;
}
// * * * * * * * * * * * * * * * * * * * * * * * * * * * * * * * * * * * * * //

dimensions      [1 -3 0 0 0 0 0];


internalField   nonuniform List<scalar> 
93840
(
1.00041
1.01503
0.998598
1.00917
0.999696
1.01127
1.00211
1.00291
1.00761
1.00341
1.00431
1.00842
1.00169
1.00849
1.01021
1.01775
1.01975
1.02748
1.02884
1.03157
1.03137
1.02625
1.02038
1.01743
1.01278
1.01161
1.01249
1.01749
1.01419
1.01621
1.00568
1.02372
0.999999
1.01284
1.00991
1.01798
1.01524
1.02176
1.01977
1.02509
1.02347
1.02776
1.02632
1.0299
1.02889
1.03218
1.03162
1.03428
1.0337
1.03648
1.03595
1.03777
1.03809
1.04059
1.03979
1.04033
1.04052
1.0421
1.04234
1.04361
1.04381
1.04417
1.044
1.04454
1.04441
1.04464
1.04423
1.04388
1.04366
1.0433
1.04285
1.04238
1.04179
1.04095
1.04011
1.03899
1.03792
1.03683
1.03552
1.03428
1.03302
1.03156
1.02993
1.028
1.02609
1.02419
1.02218
1.0202
1.01811
1.01584
1.01309
1.01021
1.00729
1.00418
1.00092
0.997433
0.993923
0.990234
0.986397
0.982342
0.978128
0.973753
0.969249
0.962293
0.955163
0.951948
0.949166
0.943381
0.937154
0.931115
0.925168
0.91924
0.913639
0.906968
0.901112
0.895316
0.890357
0.884542
0.880542
0.876488
0.874449
0.871505
0.871897
0.870365
0.874859
0.879138
0.881163
0.888037
0.89193
0.897
0.90464
0.909158
0.917641
0.920864
0.927492
0.933345
0.9402
0.944852
0.951369
0.955811
0.961262
0.965955
0.972383
0.977006
0.982371
0.986498
0.991979
0.995774
1.00162
1.00657
1.01237
1.01674
1.02286
1.0275
1.03384
1.03924
1.04589
1.05097
1.05846
1.0644
1.07109
1.07641
1.08353
1.08978
1.09766
1.10481
1.11389
1.12155
1.13023
1.13801
1.14895
1.15883
1.17028
1.17971
1.1921
1.2041
1.21834
1.2343
1.25108
1.26584
1.27641
1.28759
1.26801
1.23465
1.15246
1.07183
0.965445
0.897615
0.858403
0.848877
0.786494
0.740554
0.701406
0.686072
0.666429
0.646318
0.64266
0.63118
0.628831
0.615556
0.61716
0.616961
0.614348
0.612734
0.61161
0.611603
0.610115
0.608425
0.607344
0.606271
0.604989
0.603845
0.602729
0.601141
0.600741
0.600242
0.599193
0.597446
0.596078
0.593793
0.59245
0.586714
0.586197
0.58595
0.585747
0.585497
0.585502
0.58544
0.586143
0.586308
0.584067
0.579006
0.577218
0.573379
0.570195
0.569367
0.56815
0.566015
0.565415
0.56352
0.562572
0.560986
0.559834
0.556384
0.555582
0.553076
0.552955
0.546335
0.549095
0.545634
0.538225
0.538593
0.533866
0.532307
0.535542
0.547965
0.592498
0.669175
0.717224
0.736955
0.749423
0.760781
0.770319
0.778837
0.786298
0.793502
0.799846
0.806498
0.813926
0.821366
0.826073
0.830767
0.836831
0.843596
0.848402
0.852526
0.857118
0.862339
0.86715
0.871652
0.876015
0.880253
0.884372
0.888367
0.892267
0.896057
0.899636
0.903128
0.906443
0.909681
0.912728
0.915663
0.918413
0.921039
0.923488
0.925795
0.927965
0.929994
0.931902
0.933647
0.93534
0.936801
0.938331
0.939544
0.940954
0.941921
0.9432
0.94387
0.945082
0.945581
0.946768
0.946969
0.948196
0.948225
0.949561
0.949248
0.95065
0.950239
0.951719
0.950885
0.952722
0.951501
0.953316
0.951822
0.953833
0.952024
0.954352
0.952407
0.95505
0.952401
0.956381
0.951213
0.957157
0.951012
0.954221
0.949811
0.953004
0.965017
0.976719
0.989335
1.00151
1.01218
1.01821
1.01756
1.01894
1.02032
1.02522
1.03097
1.0314
1.02897
1.02762
1.02012
1.01802
1.00971
1.00897
1.00262
1.00804
1.00362
1.00353
1.00896
1.00292
1.00197
1.0113
0.999653
1.00911
0.998356
1.01496
1.00032
1.00031
1.01489
0.998377
1.00905
0.999402
1.01143
1.00188
1.00295
1.00882
1.00355
1.00375
1.00802
1.00242
1.00851
1.00978
1.01798
1.02019
1.0279
1.02862
1.03202
1.03272
1.02852
1.02289
1.02033
1.01776
1.01524
1.01099
1.00778
1.0057
1.00591
1.00494
1.00399
1.0074
1.01046
1.01231
1.01633
1.01626
1.02061
1.02001
1.02396
1.02331
1.0268
1.02609
1.029
1.02858
1.0312
1.03098
1.03327
1.03303
1.03538
1.03508
1.03678
1.03709
1.03917
1.03856
1.03931
1.03962
1.04101
1.04104
1.04222
1.0426
1.04284
1.04262
1.04319
1.04313
1.04329
1.04294
1.04263
1.04242
1.04205
1.04166
1.04116
1.04065
1.03985
1.03901
1.03795
1.03693
1.03588
1.03465
1.03346
1.03226
1.03085
1.02931
1.02748
1.02567
1.02385
1.02195
1.02008
1.01812
1.01597
1.0134
1.01071
1.00799
1.00508
1.00203
0.998771
0.99551
0.99207
0.988488
0.984727
0.980844
0.976773
0.972624
0.966301
0.959726
0.956644
0.954082
0.948884
0.943257
0.937805
0.932432
0.927083
0.92207
0.916078
0.910843
0.905655
0.901228
0.896064
0.892537
0.88898
0.887256
0.884766
0.885345
0.884004
0.888259
0.892612
0.894704
0.901109
0.905236
0.909993
0.917383
0.921722
0.929997
0.933016
0.939563
0.945063
0.951801
0.956199
0.962612
0.966883
0.972312
0.976811
0.982998
0.987598
0.992811
0.99677
1.00209
1.00572
1.01131
1.01594
1.0215
1.0257
1.03156
1.03591
1.04194
1.04689
1.05323
1.05777
1.06467
1.06996
1.07616
1.08106
1.08747
1.09294
1.09985
1.10618
1.11419
1.12099
1.12923
1.13663
1.14636
1.1552
1.16664
1.17602
1.18752
1.19912
1.21125
1.22398
1.23458
1.24448
1.24678
1.2656
1.25607
1.22618
1.17877
1.12114
1.04091
0.973894
0.922427
0.894283
0.837342
0.796847
0.756285
0.733453
0.712921
0.687642
0.68498
0.673372
0.66912
0.656433
0.65719
0.655081
0.651814
0.650078
0.648518
0.64731
0.645369
0.643029
0.641644
0.639953
0.637468
0.635363
0.633808
0.63227
0.631406
0.630073
0.628265
0.626608
0.624958
0.621587
0.620329
0.614005
0.612832
0.612097
0.611677
0.61098
0.61068
0.610031
0.610484
0.610111
0.607561
0.602235
0.600327
0.595976
0.592631
0.591267
0.590135
0.587708
0.586717
0.584294
0.583712
0.581861
0.580074
0.576461
0.575736
0.572692
0.572538
0.565744
0.56852
0.564545
0.557657
0.557461
0.553095
0.550724
0.555086
0.566364
0.610028
0.681212
0.723831
0.741112
0.752818
0.763663
0.772843
0.78101
0.788198
0.795137
0.80132
0.807783
0.814852
0.821898
0.826487
0.831135
0.836943
0.84332
0.847922
0.85196
0.856381
0.861319
0.865873
0.870162
0.874314
0.878352
0.88227
0.886066
0.889758
0.893348
0.896745
0.900065
0.903229
0.90634
0.909269
0.91212
0.914789
0.917364
0.919762
0.92205
0.924179
0.926206
0.928084
0.929844
0.931514
0.933015
0.934527
0.935794
0.937184
0.938229
0.93949
0.940261
0.94146
0.942054
0.943229
0.94354
0.944736
0.944882
0.946173
0.946
0.947379
0.947107
0.948564
0.947806
0.949568
0.948595
0.950345
0.949214
0.951251
0.949419
0.952047
0.949475
0.952106
0.949709
0.952722
0.949066
0.953944
0.949371
0.955462
0.945244
0.958565
0.953093
0.962896
0.96591
0.977719
0.98813
1.00127
1.00926
1.01532
1.01762
1.02218
1.02902
1.03085
1.02897
1.02721
1.01979
1.01777
1.01028
1.00824
1.00145
1.00842
1.00433
1.00343
1.00752
1.00278
1.00227
1.01111
0.999545
1.00912
0.998644
1.01505
1.00053
1.00034
1.01499
0.998415
1.00916
0.99977
1.01124
1.0021
1.00281
1.00774
1.00348
1.00428
1.00867
1.00194
1.00841
1.01008
1.01793
1.01999
1.0276
1.0284
1.03221
1.03331
1.03064
1.0243
1.02065
1.0169
1.01404
1.01284
1.01467
1.01051
1.01505
1.00888
1.01875
1.0083
1.01793
1.01252
1.02009
1.01667
1.02269
1.02046
1.02532
1.0238
1.02765
1.02667
1.0296
1.02917
1.03169
1.0315
1.03369
1.03353
1.03568
1.03561
1.03711
1.0376
1.03954
1.03895
1.03965
1.04006
1.04137
1.04142
1.04257
1.04295
1.04322
1.04296
1.04354
1.04352
1.04367
1.04333
1.04308
1.04284
1.04252
1.04214
1.0417
1.0412
1.04038
1.03963
1.0386
1.03763
1.03661
1.03544
1.0343
1.03316
1.03181
1.03034
1.02859
1.02686
1.02513
1.02334
1.02158
1.01973
1.0177
1.01528
1.01275
1.0102
1.00746
1.00457
1.00152
0.998469
0.995232
0.991874
0.98837
0.984752
0.98095
0.977089
0.971136
0.964954
0.962177
0.959904
0.955101
0.949899
0.944888
0.93992
0.934999
0.930365
0.924784
0.919895
0.915049
0.910903
0.90601
0.902688
0.899291
0.897676
0.895298
0.895781
0.894641
0.898788
0.903064
0.904834
0.911278
0.914946
0.919813
0.926875
0.931189
0.939073
0.942304
0.948208
0.953946
0.960159
0.964697
0.970604
0.974909
0.979844
0.984283
0.990175
0.994394
0.99932
1.00309
1.00826
1.01172
1.01717
1.02168
1.02708
1.03076
1.03639
1.04053
1.0462
1.05113
1.05716
1.06169
1.06819
1.07324
1.07917
1.08399
1.0904
1.09607
1.10342
1.10977
1.11791
1.12486
1.13295
1.14055
1.15087
1.16034
1.17107
1.18076
1.19301
1.20484
1.21875
1.23345
1.24789
1.26231
1.26554
1.2798
1.26134
1.23731
1.18592
1.12712
1.04103
0.979129
0.925665
0.902554
0.845265
0.800944
0.759989
0.740436
0.721593
0.694935
0.690757
0.677667
0.676633
0.664715
0.664903
0.665757
0.665343
0.662837
0.662633
0.663659
0.66278
0.661163
0.660568
0.659259
0.657953
0.65714
0.656073
0.654015
0.653143
0.652617
0.65106
0.648892
0.646695
0.644753
0.642306
0.636028
0.635262
0.634296
0.633663
0.63294
0.632505
0.631596
0.632015
0.631242
0.628781
0.622716
0.620579
0.615991
0.612486
0.611002
0.609432
0.606398
0.605768
0.603324
0.602119
0.599713
0.598492
0.594176
0.593101
0.590276
0.5902
0.582691
0.585207
0.581557
0.574108
0.573703
0.569428
0.566965
0.571655
0.581399
0.620827
0.693003
0.73565
0.750269
0.760455
0.770377
0.778922
0.786532
0.793254
0.799781
0.805645
0.811791
0.818511
0.825231
0.82963
0.834072
0.839602
0.845705
0.850124
0.854011
0.858237
0.862941
0.867275
0.871356
0.875303
0.879148
0.882883
0.886497
0.890009
0.893423
0.896648
0.899803
0.902809
0.905783
0.908584
0.911332
0.913902
0.916406
0.918731
0.920978
0.923056
0.925061
0.926898
0.928649
0.930284
0.931788
0.933265
0.934543
0.935899
0.936962
0.938197
0.939002
0.94018
0.940805
0.941958
0.94231
0.943481
0.943663
0.944929
0.944801
0.946161
0.945914
0.947357
0.946656
0.948402
0.947493
0.949255
0.94813
0.950178
0.948349
0.951044
0.948564
0.95112
0.949133
0.951672
0.948685
0.953325
0.949594
0.954046
0.948266
0.954759
0.952788
0.957584
0.961149
0.968649
0.978872
0.992868
1.00524
1.01454
1.0178
1.02104
1.02772
1.03045
1.02921
1.0269
1.02011
1.01805
1.00989
1.0091
1.00298
1.00775
1.00365
1.00346
1.00897
1.00298
1.00182
1.01125
0.999609
1.00909
0.998607
1.01489
1.00039
1.00047
1.01471
0.99835
1.00914
0.999603
1.01121
1.00197
1.00292
1.00875
1.00363
1.00387
1.00829
1.00221
1.00853
1.00982
1.01816
1.02019
1.02773
1.02834
1.03241
1.03386
1.03187
1.02676
1.02302
1.02114
1.01851
1.01454
1.01253
1.01075
1.01039
1.00992
1.01079
1.01229
1.01432
1.0153
1.01834
1.01865
1.02183
1.02204
1.02488
1.02491
1.02773
1.02746
1.03
1.0298
1.03219
1.03196
1.03426
1.03402
1.03619
1.03606
1.03771
1.03805
1.03995
1.03941
1.04028
1.04077
1.04194
1.04192
1.04305
1.04354
1.04375
1.04354
1.04408
1.04416
1.04426
1.04401
1.04376
1.04357
1.04322
1.04294
1.04248
1.04209
1.04128
1.04051
1.03954
1.03861
1.03763
1.03654
1.03544
1.03436
1.03306
1.03164
1.02996
1.02832
1.02667
1.02499
1.02331
1.02154
1.01961
1.01733
1.01495
1.01253
1.00991
1.00719
1.00431
1.00142
0.998328
0.995155
0.991867
0.988449
0.984841
0.981226
0.975612
0.969754
0.967164
0.965052
0.960547
0.955714
0.951014
0.946316
0.941674
0.937259
0.931899
0.927239
0.922541
0.918489
0.913755
0.910446
0.907137
0.905421
0.903097
0.903569
0.902068
0.905977
0.910198
0.912039
0.917949
0.922032
0.926433
0.933554
0.937441
0.945556
0.947992
0.954358
0.959423
0.965739
0.969769
0.975664
0.979631
0.984654
0.988723
0.994292
0.998549
1.00318
1.00663
1.0114
1.01454
1.01947
1.02342
1.02838
1.03207
1.0373
1.04111
1.04662
1.05115
1.05719
1.06133
1.0678
1.07279
1.07878
1.0838
1.09024
1.09582
1.10256
1.10912
1.11714
1.12427
1.13276
1.14078
1.15043
1.15961
1.17109
1.18069
1.19265
1.20439
1.21728
1.22998
1.24404
1.25489
1.26349
1.27073
1.25919
1.243
1.1967
1.14602
1.07677
1.01652
0.960157
0.924638
0.870508
0.828394
0.784864
0.761332
0.73474
0.707838
0.704802
0.687304
0.686433
0.672186
0.671921
0.672363
0.670445
0.669297
0.669372
0.669422
0.668681
0.6689
0.669228
0.668663
0.667925
0.667706
0.667315
0.667109
0.666859
0.666745
0.665722
0.664893
0.663487
0.660565
0.659456
0.652946
0.651643
0.650597
0.650193
0.649563
0.649217
0.648191
0.648596
0.647878
0.645116
0.639327
0.636926
0.632009
0.628002
0.626352
0.624889
0.622049
0.620553
0.618053
0.617174
0.614803
0.612286
0.608762
0.607279
0.604191
0.603286
0.596436
0.598536
0.594923
0.586748
0.587623
0.581219
0.58044
0.582798
0.593381
0.632405
0.705464
0.748039
0.759904
0.768719
0.77773
0.785618
0.792627
0.798861
0.804949
0.810487
0.816343
0.822698
0.829077
0.833314
0.837636
0.842911
0.848703
0.852943
0.856727
0.8608
0.865288
0.869411
0.873313
0.877096
0.880775
0.884353
0.887823
0.891177
0.894434
0.897505
0.900516
0.903375
0.906213
0.908889
0.911529
0.914001
0.91643
0.918682
0.920878
0.922897
0.924861
0.92665
0.928372
0.929969
0.931459
0.932903
0.934172
0.935497
0.936551
0.93776
0.938564
0.93972
0.940345
0.941476
0.941833
0.942987
0.94317
0.944431
0.944302
0.945632
0.945395
0.946826
0.946181
0.947975
0.946964
0.948764
0.947541
0.949465
0.947908
0.950377
0.948357
0.951454
0.948756
0.95199
0.948044
0.95274
0.948833
0.954416
0.947733
0.955636
0.951626
0.956624
0.956434
0.962228
0.967289
0.97794
0.991035
1.00648
1.01429
1.01847
1.02594
1.02973
1.02891
1.02691
1.0198
1.01795
1.01028
1.00812
1.00145
1.00828
1.00428
1.00343
1.0076
1.0027
1.00226
1.0111
0.999575
1.00918
0.998518
1.01512
1.00061
1.00048
1.01495
0.998348
1.0091
0.999717
1.01119
1.00227
1.00292
1.00761
1.00361
1.00438
1.00892
1.0021
1.00863
1.00994
1.01807
1.02009
1.02744
1.02824
1.03245
1.03412
1.03349
1.02808
1.02366
1.02009
1.01804
1.01629
1.01781
1.01429
1.01872
1.01323
1.02006
1.01345
1.02113
1.01609
1.02289
1.01931
1.02498
1.02264
1.02713
1.02574
1.02925
1.02844
1.03123
1.03078
1.03329
1.0329
1.03528
1.03494
1.03705
1.03709
1.0386
1.03907
1.04091
1.04036
1.0412
1.04175
1.04291
1.04287
1.04402
1.04447
1.04477
1.04449
1.04508
1.04516
1.04528
1.04503
1.04487
1.04463
1.04434
1.04404
1.04368
1.04328
1.04247
1.04177
1.04083
1.03994
1.03899
1.03796
1.03692
1.03589
1.03465
1.03328
1.03166
1.03011
1.02855
1.02696
1.02537
1.02369
1.02186
1.01972
1.01748
1.01516
1.01266
1.01009
1.00737
1.00461
1.00167
0.998685
0.995582
0.992332
0.988911
0.985476
0.98011
0.974566
0.972177
0.970193
0.965915
0.961333
0.956842
0.952313
0.947848
0.943514
0.938289
0.933673
0.929018
0.924978
0.920192
0.916894
0.91347
0.911727
0.909305
0.909528
0.90833
0.912168
0.916181
0.917588
0.923706
0.927031
0.931748
0.938354
0.942437
0.949876
0.952889
0.958531
0.963838
0.969775
0.973798
0.979364
0.983363
0.987935
0.991975
0.997287
1.00104
1.00534
1.00877
1.01359
1.01678
1.02186
1.02594
1.031
1.03424
1.03954
1.04358
1.04895
1.05364
1.05944
1.06414
1.07047
1.07543
1.08111
1.08593
1.09225
1.09815
1.10541
1.11163
1.11965
1.12678
1.13483
1.14255
1.15277
1.16221
1.17262
1.18207
1.19432
1.20538
1.21877
1.23012
1.2436
1.25506
1.26104
1.26821
1.2541
1.23372
1.19062
1.14379
1.07273
1.01567
0.960326
0.92704
0.874949
0.830828
0.789861
0.765859
0.743964
0.714633
0.707539
0.690464
0.687799
0.673165
0.674867
0.673496
0.672613
0.67045
0.670661
0.670365
0.670471
0.669541
0.668932
0.66888
0.669091
0.668255
0.668753
0.669021
0.669035
0.669584
0.669677
0.669414
0.668886
0.668223
0.666546
0.661659
0.661568
0.661273
0.661399
0.661589
0.661669
0.661064
0.661819
0.66132
0.658989
0.653011
0.650385
0.64577
0.641564
0.640086
0.637974
0.635529
0.633777
0.631304
0.629801
0.628172
0.625486
0.621299
0.619448
0.617038
0.616099
0.60876
0.610179
0.607818
0.598101
0.599276
0.592777
0.592599
0.593832
0.604162
0.643047
0.717403
0.760955
0.77131
0.778681
0.786634
0.793721
0.800063
0.805693
0.811269
0.816385
0.821846
0.827825
0.833859
0.83789
0.84197
0.846946
0.852466
0.85652
0.860155
0.864046
0.868327
0.872257
0.875964
0.879544
0.883036
0.886428
0.889721
0.892917
0.896019
0.898941
0.901802
0.904515
0.907215
0.90975
0.912267
0.914619
0.91694
0.919093
0.921209
0.92316
0.925075
0.926813
0.9285
0.930056
0.931516
0.932918
0.934162
0.935447
0.93648
0.937659
0.938454
0.939584
0.940197
0.941306
0.941659
0.94279
0.942961
0.944201
0.944072
0.945386
0.945145
0.946562
0.945923
0.947693
0.94666
0.948499
0.947324
0.949226
0.947804
0.950165
0.948042
0.951295
0.948655
0.951579
0.948616
0.952051
0.94956
0.953426
0.950179
0.9546
0.951936
0.956519
0.956493
0.960839
0.96598
0.974597
0.985588
1.00089
1.01229
1.01708
1.02431
1.02903
1.02915
1.02677
1.02013
1.01812
1.00992
1.00946
1.00288
1.00759
1.0038
1.00354
1.00891
1.00292
1.00178
1.01143
0.999456
1.0092
0.998608
1.01504
1.00065
1.00027
1.01458
0.99831
1.00919
0.999864
1.01142
1.00201
1.003
1.00871
1.0037
1.00381
1.00845
1.00215
1.00838
1.00976
1.01861
1.02011
1.02753
1.02814
1.03267
1.03435
1.03445
1.03085
1.02625
1.02408
1.02212
1.01778
1.01716
1.0149
1.01564
1.01486
1.0163
1.0168
1.0185
1.01929
1.0214
1.02197
1.02438
1.02464
1.02733
1.02705
1.03
1.02954
1.03211
1.03186
1.03418
1.03386
1.03621
1.03591
1.0379
1.03802
1.03959
1.04
1.04185
1.04128
1.04227
1.04282
1.04393
1.04377
1.04503
1.04546
1.0458
1.04553
1.04609
1.04626
1.04634
1.04621
1.04602
1.04582
1.04552
1.04531
1.04496
1.04466
1.0439
1.04317
1.04227
1.04143
1.04054
1.03959
1.03861
1.03765
1.03644
1.03514
1.03359
1.03214
1.03068
1.0292
1.02768
1.02607
1.02434
1.02235
1.02023
1.01803
1.01565
1.01324
1.01066
1.00802
1.0052
1.00238
0.999446
0.996343
0.993096
0.98986
0.984724
0.979432
0.977186
0.975236
0.971119
0.966771
0.962407
0.957973
0.953573
0.949227
0.943984
0.939393
0.934663
0.930512
0.925717
0.922253
0.918799
0.916789
0.914312
0.914527
0.912709
0.91631
0.920057
0.921669
0.927
0.930869
0.934868
0.941643
0.944972
0.952653
0.954607
0.960581
0.965142
0.9709
0.974419
0.979753
0.983435
0.988005
0.991835
0.99691
1.00103
1.00541
1.00874
1.0134
1.0166
1.02143
1.02528
1.03028
1.03414
1.03937
1.04336
1.04901
1.05343
1.05944
1.06362
1.06992
1.07485
1.08106
1.08622
1.09288
1.09854
1.10546
1.11202
1.11989
1.12714
1.13571
1.14366
1.15358
1.16219
1.17402
1.18318
1.19542
1.2058
1.21883
1.22968
1.24131
1.25025
1.25685
1.26481
1.25045
1.24085
1.20293
1.1603
1.10022
1.04582
0.990424
0.951355
0.899515
0.858213
0.815325
0.787043
0.758422
0.72885
0.722609
0.701157
0.699322
0.682432
0.681256
0.67991
0.678999
0.675389
0.67362
0.67464
0.674275
0.673611
0.672834
0.672365
0.673009
0.672844
0.672771
0.671819
0.672112
0.672252
0.673315
0.673259
0.672144
0.671654
0.671683
0.665803
0.665914
0.666497
0.667171
0.66789
0.668738
0.669111
0.670524
0.671031
0.669103
0.664197
0.661638
0.65722
0.652788
0.651664
0.649543
0.647105
0.645553
0.643494
0.641442
0.639472
0.636992
0.633755
0.631161
0.628804
0.626694
0.62065
0.621404
0.619131
0.609018
0.611282
0.603009
0.603587
0.603906
0.614234
0.653445
0.729985
0.775133
0.78384
0.789797
0.796796
0.803132
0.808712
0.813707
0.818681
0.823316
0.828353
0.833856
0.839494
0.843303
0.8472
0.85186
0.857023
0.860862
0.864332
0.868026
0.872073
0.875766
0.879262
0.882657
0.885953
0.889164
0.892296
0.895314
0.898244
0.900994
0.903694
0.906237
0.908769
0.911151
0.913523
0.915742
0.917957
0.920006
0.92204
0.923899
0.925737
0.927399
0.929024
0.930522
0.931946
0.933301
0.93452
0.935764
0.93677
0.937906
0.938681
0.939771
0.940363
0.941436
0.941782
0.942878
0.94304
0.944244
0.944121
0.94542
0.94516
0.946544
0.945912
0.947604
0.946664
0.948489
0.947313
0.949356
0.947758
0.950072
0.947982
0.950724
0.94863
0.951841
0.948975
0.952865
0.949285
0.953968
0.950593
0.955054
0.952159
0.956529
0.955435
0.959247
0.96077
0.96692
0.975546
0.990619
1.00608
1.01399
1.02204
1.02822
1.02837
1.02686
1.02
1.01802
1.01047
1.00801
1.0011
1.00837
1.00418
1.00355
1.00752
1.00275
1.00238
1.01092
0.999622
1.00912
0.998558
1.01516
1.00064
1.00038
1.01507
0.998554
1.0092
0.999772
1.0113
1.00218
1.0029
1.00758
1.00368
1.00438
1.00907
1.00253
1.00866
1.01004
1.0184
1.02006
1.02721
1.02795
1.03255
1.03441
1.03536
1.03196
1.02758
1.02344
1.02264
1.01993
1.02191
1.01843
1.02232
1.01799
1.02309
1.01865
1.02437
1.02057
1.02608
1.02302
1.02804
1.02571
1.03005
1.02836
1.03206
1.03088
1.03391
1.03318
1.03574
1.03517
1.0376
1.03722
1.03914
1.03939
1.04088
1.04139
1.0432
1.04262
1.04354
1.04417
1.04527
1.04512
1.04636
1.04677
1.04723
1.0469
1.0475
1.04765
1.04776
1.04764
1.04754
1.04732
1.04706
1.04685
1.04658
1.04627
1.04554
1.04487
1.04399
1.04322
1.04236
1.04148
1.04057
1.03966
1.03851
1.03726
1.03579
1.03443
1.03307
1.03168
1.03023
1.02872
1.02711
1.02525
1.02323
1.02111
1.01884
1.01656
1.01411
1.01156
1.00888
1.00622
1.00341
1.00043
0.997328
0.994178
0.989216
0.984191
0.982016
0.980044
0.97604
0.97178
0.967434
0.962987
0.958552
0.954072
0.94878
0.944026
0.939169
0.934889
0.929894
0.926412
0.922677
0.920647
0.917923
0.917837
0.916243
0.919893
0.923253
0.924432
0.929804
0.932907
0.937081
0.943231
0.946803
0.953745
0.956311
0.961797
0.966466
0.972132
0.975797
0.981125
0.984883
0.989329
0.993221
0.998443
1.00207
1.00639
1.00974
1.0146
1.0179
1.02321
1.02699
1.03233
1.03547
1.04089
1.04457
1.05026
1.05486
1.06107
1.06553
1.07195
1.07653
1.08288
1.08744
1.09417
1.09946
1.10731
1.11317
1.12162
1.1282
1.13699
1.14397
1.15496
1.16298
1.17405
1.18274
1.19549
1.20504
1.21783
1.22857
1.23911
1.24865
1.2521
1.26022
1.24412
1.22968
1.19088
1.15535
1.09234
1.04231
0.987822
0.952669
0.901925
0.863126
0.817931
0.790962
0.76336
0.735848
0.722464
0.704537
0.698607
0.685267
0.685408
0.680852
0.679357
0.677875
0.674995
0.674886
0.674525
0.67414
0.67363
0.673729
0.67311
0.672691
0.672404
0.672323
0.671915
0.672424
0.672751
0.672691
0.672389
0.67138
0.670897
0.666312
0.666042
0.6664
0.667312
0.667867
0.669145
0.670275
0.671567
0.673031
0.671715
0.667759
0.665688
0.66236
0.658462
0.658437
0.656591
0.655837
0.653577
0.652409
0.650536
0.650175
0.646273
0.643603
0.640727
0.639309
0.637218
0.630798
0.631079
0.630247
0.618576
0.620974
0.613473
0.61389
0.613604
0.623495
0.662575
0.741959
0.78961
0.797598
0.802147
0.808183
0.813725
0.818598
0.822879
0.827237
0.831337
0.835861
0.840899
0.846088
0.849623
0.853214
0.85751
0.862337
0.865932
0.869215
0.872692
0.876505
0.879993
0.883267
0.886412
0.889483
0.892461
0.895367
0.8982
0.900959
0.903545
0.90608
0.908466
0.910844
0.913054
0.915272
0.917332
0.91939
0.921297
0.923202
0.92496
0.926721
0.928308
0.929877
0.931315
0.932683
0.933978
0.935144
0.936333
0.937297
0.938393
0.939141
0.940196
0.940759
0.941802
0.942122
0.943188
0.943321
0.944495
0.944356
0.945631
0.94534
0.946714
0.946097
0.947742
0.946824
0.948637
0.947401
0.94946
0.947934
0.95013
0.948378
0.950974
0.948755
0.951886
0.949611
0.952876
0.949944
0.953574
0.951841
0.955028
0.952948
0.956669
0.955929
0.959283
0.960775
0.966072
0.973381
0.985378
1.00131
1.01136
1.02
1.027
1.02824
1.02692
1.02027
1.0183
1.01011
1.00948
1.00288
1.00773
1.00388
1.00349
1.00884
1.00295
1.00177
1.01133
0.999283
1.00916
0.998626
1.01522
1.00074
1.00043
1.01444
0.998002
1.00899
0.999838
1.01093
1.00197
1.00294
1.00872
1.00385
1.00402
1.00833
1.00171
1.00873
1.00976
1.01872
1.01998
1.02723
1.0283
1.03272
1.03432
1.03609
1.03441
1.03036
1.027
1.02636
1.02168
1.022
1.01982
1.02083
1.02011
1.0215
1.02163
1.02314
1.02359
1.02536
1.02578
1.02794
1.02802
1.03052
1.03029
1.03278
1.03273
1.03476
1.03483
1.0368
1.03659
1.03877
1.03851
1.04038
1.04058
1.0422
1.04264
1.04454
1.0439
1.0449
1.04555
1.04663
1.04634
1.04772
1.04809
1.04861
1.04823
1.04888
1.04908
1.04918
1.04917
1.04907
1.04886
1.04862
1.04841
1.04823
1.04798
1.04736
1.04668
1.04583
1.04508
1.04432
1.04353
1.04267
1.04183
1.04071
1.03952
1.03815
1.0369
1.03564
1.03433
1.03295
1.03151
1.03
1.02827
1.02633
1.02432
1.02216
1.02002
1.01764
1.01517
1.01259
1.01004
1.00733
1.00444
1.00147
0.998433
0.99356
0.988673
0.986538
0.984456
0.980462
0.976256
0.971832
0.967311
0.962747
0.958101
0.952569
0.947715
0.942601
0.937984
0.932623
0.928949
0.924882
0.922549
0.919021
0.920111
0.916701
0.92087
0.923096
0.925451
0.929191
0.933746
0.93658
0.943893
0.94632
0.954528
0.955708
0.962281
0.965977
0.972543
0.975061
0.981346
0.984025
0.989425
0.992688
0.998236
1.00161
1.00688
1.00944
1.01501
1.0175
1.02341
1.02626
1.03238
1.03504
1.04147
1.04434
1.05142
1.05465
1.06174
1.06488
1.07261
1.07608
1.0837
1.08753
1.09568
1.10024
1.10832
1.11393
1.12271
1.12884
1.13867
1.14549
1.15618
1.16428
1.17569
1.18414
1.19587
1.20636
1.21715
1.22788
1.23708
1.24461
1.24845
1.25688
1.24239
1.22914
1.20153
1.16623
1.11508
1.06685
1.01409
0.975928
0.924705
0.886423
0.842104
0.812698
0.780089
0.748942
0.738178
0.717434
0.711491
0.69768
0.689978
0.686314
0.685956
0.682734
0.679891
0.680233
0.677496
0.678295
0.676793
0.677664
0.677229
0.676999
0.675541
0.676012
0.675749
0.676028
0.675679
0.67566
0.674964
0.67484
0.674917
0.668913
0.668057
0.669017
0.669492
0.670415
0.671329
0.672347
0.673425
0.67509
0.673642
0.670775
0.667913
0.66557
0.661076
0.66196
0.659947
0.659823
0.658442
0.658249
0.656112
0.656402
0.653876
0.651536
0.648934
0.6476
0.645322
0.640074
0.639949
0.639066
0.627874
0.630661
0.62213
0.623017
0.622121
0.631623
0.67072
0.753732
0.804491
0.811517
0.814831
0.820231
0.825271
0.829454
0.833105
0.8368
0.840335
0.844348
0.848828
0.853566
0.856806
0.860157
0.864091
0.868513
0.871837
0.874882
0.878105
0.88165
0.884868
0.887898
0.890835
0.893679
0.896443
0.899158
0.901775
0.90433
0.906717
0.909068
0.911256
0.913438
0.915472
0.91751
0.919405
0.921328
0.923098
0.92489
0.926517
0.928154
0.929628
0.931098
0.932448
0.933756
0.934986
0.936117
0.937248
0.938174
0.93921
0.939923
0.940916
0.941447
0.942432
0.94274
0.943753
0.943877
0.944996
0.944864
0.946078
0.945797
0.947129
0.946514
0.948124
0.947209
0.948923
0.947786
0.949711
0.948264
0.950561
0.948764
0.951459
0.949149
0.951938
0.94993
0.953274
0.950397
0.954133
0.95192
0.955566
0.953367
0.956667
0.955712
0.958804
0.95932
0.963178
0.967711
0.977915
0.993996
1.00646
1.01712
1.02596
1.02729
1.02695
1.02041
1.01824
1.01064
1.00822
1.00124
1.0083
1.00412
1.00353
1.00759
1.00258
1.00254
1.01111
0.999638
1.00925
0.998664
1.0151
1.00073
1.00047
1.01494
0.998508
1.00929
0.999846
1.01121
1.00218
1.00286
1.0076
1.00377
1.00438
1.00932
1.00299
1.00866
1.00994
1.01861
1.0199
1.02688
1.02807
1.03251
1.0344
1.03619
1.03489
1.03197
1.027
1.02722
1.02429
1.02623
1.0233
1.02625
1.02321
1.02696
1.02392
1.02819
1.02536
1.02983
1.02737
1.0317
1.02959
1.03353
1.0319
1.03536
1.03429
1.03705
1.0364
1.03877
1.0382
1.0405
1.04015
1.04197
1.04216
1.04379
1.04434
1.04616
1.04556
1.04643
1.04723
1.04825
1.04802
1.04931
1.04971
1.05034
1.04994
1.05063
1.05076
1.05092
1.05093
1.05089
1.05072
1.0505
1.05035
1.05019
1.04994
1.04935
1.04871
1.04789
1.04723
1.04651
1.04579
1.045
1.0442
1.04315
1.04202
1.04072
1.03958
1.0384
1.03716
1.03584
1.03451
1.03311
1.03147
1.0296
1.02762
1.02555
1.02348
1.02117
1.01875
1.01628
1.01382
1.01114
1.00829
1.00538
1.00229
0.99746
0.992734
0.990501
0.988219
0.984202
0.979901
0.97524
0.970497
0.965596
0.960585
0.954688
0.949606
0.94425
0.939433
0.933899
0.93
0.925859
0.92335
0.919953
0.920227
0.917369
0.922532
0.923792
0.926714
0.930082
0.934976
0.937362
0.944813
0.946827
0.955108
0.956354
0.963278
0.966576
0.973312
0.975817
0.982337
0.984921
0.990375
0.993129
0.9998
1.00208
1.00775
1.00997
1.01598
1.01807
1.02452
1.02723
1.03372
1.03589
1.04246
1.04518
1.05166
1.05546
1.06255
1.06603
1.07348
1.07715
1.08431
1.08871
1.09575
1.10091
1.10887
1.11432
1.12312
1.12961
1.13841
1.14584
1.15558
1.16416
1.1749
1.18401
1.19458
1.20473
1.21561
1.22535
1.23417
1.24244
1.24432
1.25133
1.23781
1.22598
1.19207
1.16141
1.10829
1.06176
1.00957
0.973532
0.924572
0.885872
0.843976
0.814167
0.784897
0.755147
0.73906
0.719136
0.711225
0.698048
0.695203
0.686683
0.685051
0.683472
0.681497
0.67976
0.679137
0.678983
0.677032
0.676862
0.676448
0.676953
0.675961
0.675215
0.67477
0.675395
0.675491
0.67525
0.67467
0.674301
0.673543
0.669422
0.66777
0.668419
0.66852
0.669907
0.670614
0.671705
0.672652
0.674393
0.673726
0.670203
0.667733
0.664646
0.661007
0.661382
0.660076
0.659667
0.658744
0.658411
0.657504
0.657029
0.654609
0.654359
0.651562
0.65155
0.649646
0.644842
0.644959
0.645839
0.634134
0.637215
0.630063
0.630629
0.629604
0.638549
0.677581
0.764518
0.819078
0.825756
0.827825
0.832725
0.837359
0.841092
0.844141
0.84729
0.850306
0.853781
0.857778
0.862
0.864905
0.867897
0.871428
0.875468
0.878492
0.88131
0.884274
0.88755
0.890555
0.893343
0.895982
0.898566
0.901049
0.90348
0.905875
0.908228
0.910428
0.912594
0.914615
0.916629
0.918465
0.920323
0.922024
0.923742
0.925322
0.926934
0.928421
0.929951
0.93132
0.932707
0.93397
0.93519
0.936334
0.937377
0.938434
0.939297
0.94028
0.94095
0.9419
0.942389
0.943334
0.943599
0.944573
0.944649
0.945733
0.945565
0.946744
0.946431
0.94774
0.947105
0.948691
0.947774
0.949463
0.948356
0.95026
0.948804
0.951
0.949355
0.951856
0.949911
0.952455
0.950614
0.953546
0.951451
0.954476
0.952662
0.955771
0.954499
0.957214
0.956316
0.959274
0.959556
0.963136
0.966518
0.975318
0.989079
1.00171
1.0138
1.0243
1.02716
1.02709
1.02058
1.01841
1.01031
1.0093
1.00266
1.00761
1.00385
1.00355
1.00865
1.00308
1.00159
1.01151
0.999395
1.00919
0.998596
1.01516
1.00067
1.00043
1.01434
0.99806
1.00899
0.999805
1.01117
1.00196
1.00287
1.00866
1.00394
1.00382
1.00831
1.00138
1.00898
1.00967
1.0187
1.02002
1.02694
1.02861
1.03244
1.03427
1.03677
1.0368
1.03462
1.03045
1.03057
1.02653
1.02679
1.02525
1.02602
1.02557
1.02671
1.0267
1.02792
1.02832
1.02979
1.03025
1.03196
1.03216
1.03419
1.03421
1.03623
1.03635
1.03822
1.03819
1.04015
1.03987
1.04188
1.04179
1.04349
1.04365
1.04525
1.0459
1.04779
1.04714
1.04806
1.04885
1.04991
1.04957
1.05089
1.05134
1.05195
1.05153
1.05229
1.05243
1.05262
1.05271
1.0527
1.05253
1.05235
1.05215
1.05215
1.05193
1.05142
1.05085
1.05006
1.04942
1.04878
1.04814
1.0474
1.04666
1.04564
1.04458
1.04339
1.04235
1.04124
1.04005
1.03878
1.03751
1.03618
1.03461
1.03276
1.03087
1.02889
1.02689
1.02457
1.02218
1.01973
1.01727
1.01458
1.01173
1.00882
1.00569
1.00078
0.995953
0.993621
0.991012
0.986713
0.982101
0.977156
0.972151
0.966975
0.961666
0.955551
0.950296
0.944918
0.93996
0.934591
0.930412
0.926438
0.923695
0.920908
0.920612
0.918148
0.922543
0.924105
0.92699
0.929935
0.935055
0.937538
0.945249
0.947154
0.95571
0.956428
0.9633
0.96686
0.973517
0.975981
0.982327
0.985128
0.9906
0.993403
0.999232
1.00237