/*--------------------------------*- C++ -*----------------------------------*\
| =========                 |                                                 |
| \\      /  F ield         | OpenFOAM: The Open Source CFD Toolbox           |
|  \\    /   O peration     | Version:  v2006                                 |
|   \\  /    A nd           | Website:  www.openfoam.com                      |
|    \\/     M anipulation  |                                                 |
\*---------------------------------------------------------------------------*/
FoamFile
{
    version     2.0;
    format      ascii;
    class       volScalarField;
    location    "100";
    object      T;
}
// * * * * * * * * * * * * * * * * * * * * * * * * * * * * * * * * * * * * * //

dimensions      [0 0 0 1 0 0 0];


internalField   nonuniform List<scalar> 
93840
(
1.00008
1.00555
0.999032
1.00307
0.998848
1.0032
0.998238
0.99682
0.999896
1.00227
1.00312
1.00466
1.0069
1.00936
1.00877
1.01055
1.0109
1.01266
1.01376
1.01467
1.01864
1.02572
1.03236
1.03453
1.03654
1.03694
1.03372
1.03095
1.02933
1.03217
1.03348
1.04153
1.04029
1.03699
1.0429
1.03995
1.04406
1.04202
1.04517
1.0437
1.04612
1.045
1.04685
1.04602
1.04754
1.04703
1.04837
1.04796
1.049
1.04891
1.04977
1.04951
1.05052
1.05072
1.05122
1.05077
1.0515
1.05161
1.05226
1.05241
1.05299
1.05287
1.05325
1.05335
1.05369
1.05376
1.05397
1.05391
1.05417
1.05419
1.05436
1.05438
1.05455
1.05448
1.05457
1.05445
1.05449
1.05445
1.05442
1.05437
1.0544
1.05433
1.05427
1.05409
1.05397
1.05384
1.05374
1.05364
1.05359
1.05347
1.05322
1.0529
1.05263
1.05226
1.05191
1.05143
1.051
1.0505
1.05002
1.04946
1.04886
1.04826
1.0477
1.04609
1.04413
1.04378
1.04384
1.04263
1.04113
1.03956
1.03793
1.03623
1.03449
1.0322
1.03
1.02773
1.02562
1.02297
1.02076
1.01845
1.01667
1.01436
1.01306
1.01093
1.01087
1.01128
1.01011
1.01117
1.01104
1.01109
1.01249
1.01256
1.01417
1.01386
1.01456
1.01548
1.01646
1.01686
1.01765
1.0181
1.01855
1.0191
1.01997
1.02051
1.02094
1.02126
1.02186
1.02205
1.02275
1.02339
1.02405
1.02449
1.02538
1.02589
1.02678
1.02767
1.02876
1.02953
1.03091
1.03195
1.03301
1.03386
1.03516
1.03644
1.03802
1.03958
1.0417
1.04359
1.0457
1.04778
1.05093
1.05403
1.05747
1.0606
1.06491
1.06939
1.07403
1.07946
1.08523
1.09
1.09339
1.09475
1.09377
1.07572
1.05852
1.0205
0.989349
0.96083
0.952192
0.950947
0.926564
0.909765
0.895926
0.893812
0.888406
0.884956
0.887735
0.887503
0.89068
0.888101
0.894028
0.898623
0.900903
0.90317
0.906182
0.910439
0.913122
0.915431
0.918192
0.921002
0.923212
0.925784
0.928605
0.93092
0.933627
0.936471
0.938886
0.940801
0.94316
0.94482
0.946591
0.946181
0.949393
0.951757
0.954351
0.956856
0.959406
0.961807
0.964157
0.96666
0.966494
0.965938
0.966412
0.966873
0.966592
0.969178
0.969468
0.971241
0.971338
0.973227
0.973165
0.975019
0.974987
0.975146
0.975118
0.976621
0.97616
0.97531
0.977676
0.977331
0.972973
0.977319
0.973232
0.976372
0.979617
0.989857
1.02312
1.06991
1.08459
1.08236
1.07891
1.07695
1.07531
1.07399
1.07276
1.07183
1.0709
1.07046
1.07076
1.07106
1.07033
1.06985
1.07031
1.0711
1.07115
1.07105
1.07134
1.07194
1.07241
1.07282
1.07322
1.07364
1.07406
1.07443
1.07479
1.0751
1.07533
1.07552
1.07567
1.07584
1.07595
1.07611
1.07622
1.07639
1.0765
1.07671
1.07681
1.07704
1.07713
1.07739
1.07748
1.07777
1.07786
1.07817
1.07826
1.07861
1.0787
1.07906
1.07915
1.07952
1.0796
1.07995
1.07999
1.08037
1.08043
1.08075
1.08078
1.08117
1.08116
1.0815
1.08162
1.08193
1.082
1.08229
1.08235
1.08268
1.08271
1.0832
1.08322
1.08369
1.08404
1.08394
1.08461
1.0849
1.08321
1.086
1.08137
1.07512
1.06623
1.05578
1.04545
1.03703
1.03501
1.03547
1.03477
1.03352
1.02717
1.01897
1.01477
1.0138
1.01254
1.01097
1.01044
1.00919
1.00908
1.00621
1.00475
1.00387
1.00241
0.999708
0.996876
0.998502
1.00327
0.998976
1.0032
0.99899
1.00555
1.00009
1.0001
1.0055
0.999015
1.00319
0.999144
1.00322
0.998585
0.996865
0.999839
1.00233
1.00369
1.00482
1.0064
1.00944
1.00902
1.01058
1.01116
1.01274
1.01368
1.01432
1.01706
1.02365
1.03053
1.03301
1.03491
1.0375
1.03718
1.03861
1.03875
1.03781
1.03731
1.03693
1.03776
1.03935
1.04012
1.04151
1.04198
1.0431
1.04368
1.04439
1.04513
1.04555
1.04631
1.0465
1.04737
1.04749
1.04838
1.04844
1.04925
1.04945
1.05015
1.05017
1.05105
1.05133
1.05175
1.05157
1.05231
1.05251
1.05306
1.05327
1.0539
1.05383
1.05417
1.05431
1.05468
1.05475
1.05496
1.05491
1.05517
1.05517
1.05535
1.05536
1.05551
1.05543
1.05547
1.05533
1.05532
1.05523
1.05516
1.05507
1.05504
1.05491
1.05476
1.0545
1.05429
1.05408
1.05388
1.05367
1.05347
1.0532
1.0528
1.05231
1.05183
1.05125
1.05069
1.04999
1.04929
1.04852
1.04777
1.0469
1.04596
1.04499
1.044
1.04184
1.03948
1.03882
1.03841
1.0366
1.03453
1.03234
1.03006
1.02771
1.02528
1.02226
1.01942
1.01645
1.01372
1.0104
1.0077
1.00485
1.00271
1.00001
0.998597
0.996268
0.996412
0.996781
0.995775
0.997045
0.997054
0.997418
0.999098
0.999344
1.00132
1.00106
1.00226
1.00328
1.00462
1.00509
1.00624
1.00679
1.0076
1.00831
1.00943
1.01016
1.01085
1.0114
1.01225
1.01269
1.0137
1.01455
1.01556
1.01636
1.01762
1.01848
1.01987
1.02117
1.02281
1.02408
1.02605
1.02767
1.02952
1.03123
1.03343
1.03559
1.03803
1.04058
1.04375
1.04673
1.05001
1.05306
1.05691
1.06077
1.06541
1.06927
1.07362
1.07822
1.08282
1.0881
1.09298
1.09755
1.10049
1.10021
1.09589
1.08673
1.07239
1.0422
1.01189
0.981824
0.961384
0.949284
0.92399
0.905542
0.8869
0.876908
0.867125
0.856482
0.856094
0.852453
0.852669
0.848566
0.85178
0.854488
0.856082
0.85846
0.8608
0.86473
0.86787
0.870665
0.87375
0.877106
0.879423
0.882033
0.885228
0.888265
0.891295
0.894193
0.896986
0.89948
0.90233
0.90405
0.906453
0.905992
0.909219
0.912044
0.914838
0.917826
0.920749
0.923826
0.926467
0.929801
0.930014
0.930111
0.930379
0.931388
0.930678
0.933839
0.934112
0.936665
0.936482
0.938837
0.939046
0.941421
0.941201
0.941966
0.941814
0.943634
0.943266
0.942604
0.944733
0.945511
0.939897
0.945158
0.94011
0.944402
0.945307
0.959992
0.99526
1.05013
1.07527
1.07611
1.07387
1.07284
1.07183
1.07106
1.07024
1.06969
1.06906
1.06892
1.0696
1.07031
1.06985
1.06958
1.0703
1.07143
1.07175
1.07188
1.0724
1.07329
1.07405
1.07472
1.07539
1.07604
1.07669
1.0773
1.07789
1.07842
1.07886
1.07924
1.07956
1.07986
1.0801
1.08035
1.08054
1.08076
1.08092
1.08113
1.08127
1.0815
1.08161
1.08184
1.08196
1.08219
1.0823
1.08255
1.08265
1.0829
1.083
1.08324
1.08335
1.08361
1.0837
1.08392
1.084
1.08423
1.08432
1.0845
1.08458
1.0848
1.08485
1.08497
1.0851
1.08527
1.08532
1.08558
1.08566
1.08577
1.08598
1.08599
1.08604
1.08642
1.08642
1.08667
1.08721
1.08761
1.08819
1.08815
1.08753
1.08613
1.08298
1.0775
1.06916
1.05744
1.04667
1.03951
1.03633
1.03506
1.02974
1.02097
1.0153
1.0139
1.01252
1.01073
1.0104
1.00876
1.00965
1.00708
1.00461
1.00313
1.00225
0.999941
0.996911
0.998065
1.00342
0.998924
1.00314
0.999035
1.00559
1.00015
1.00005
1.00551
0.999014
1.00305
0.998877
1.00317
0.998272
0.996935
0.999799
1.00223
1.00322
1.0045
1.0066
1.00951
1.00893
1.0106
1.0111
1.01273
1.01367
1.01442
1.01648
1.02133
1.02832
1.03165
1.03287
1.0355
1.0354
1.03646
1.03604
1.03783
1.03692
1.03956
1.03826
1.03923
1.04022
1.0405
1.04181
1.04199
1.0432
1.04344
1.04446
1.04471
1.04558
1.04575
1.04659
1.04681
1.04759
1.04782
1.04849
1.04881
1.04945
1.04959
1.05036
1.05077
1.0511
1.05105
1.05169
1.05198
1.05244
1.05274
1.05331
1.0533
1.05358
1.05377
1.0541
1.05419
1.05437
1.05435
1.05455
1.05457
1.05471
1.05473
1.05483
1.05472
1.05473
1.05457
1.0545
1.05438
1.05427
1.05413
1.05404
1.05384
1.05362
1.05328
1.05299
1.05271
1.05239
1.05207
1.05173
1.05134
1.0508
1.05015
1.04948
1.04873
1.04798
1.04707
1.04615
1.04516
1.04418
1.04304
1.0418
1.04053
1.03919
1.03667
1.03398
1.03295
1.0321
1.02987
1.02738
1.0247
1.02198
1.01915
1.01629
1.01283
1.00963
1.00629
1.00326
0.999649
0.996776
0.993741
0.99152
0.988774
0.987437
0.985164
0.985555
0.985915
0.985143
0.986559
0.986728
0.98742
0.989248
0.98972
0.991863
0.991929
0.993313
0.994623
0.996138
0.996887
0.998303
0.999125
1.00017
1.00111
1.00253
1.00339
1.00439
1.00517
1.00637
1.00705
1.00842
1.00955
1.01094
1.01187
1.01342
1.01455
1.01625
1.01781
1.01969
1.02126
1.0235
1.02533
1.02734
1.02897
1.03118
1.03332
1.03589
1.03825
1.04123
1.04391
1.04688
1.04961
1.05344
1.05694
1.06076
1.06431
1.06875
1.07322
1.07835
1.08288
1.08763
1.09222
1.09471
1.0971
1.09311
1.0826
1.06264
1.03703
1.00727
0.980619
0.962784
0.952167
0.927807
0.909197
0.889416
0.881319
0.872075
0.85978
0.856857
0.851216
0.850945
0.84463
0.845047
0.84628
0.845675
0.845353
0.845865
0.847838
0.848848
0.849519
0.850854
0.852378
0.853895
0.855691
0.857996
0.859835
0.8623
0.864892
0.867478
0.869326
0.871604
0.87395
0.875807
0.875174
0.878337
0.881137
0.883684
0.886576
0.88951
0.892816
0.895521
0.898973
0.899763
0.900028
0.900468
0.901702
0.901234
0.904512
0.904748
0.907302
0.907755
0.910241
0.910558
0.912607
0.913368
0.91396
0.914227
0.916156
0.916324
0.915247
0.917634
0.918766
0.913444
0.918199
0.914096
0.917878
0.918138
0.934086
0.975922
1.03245
1.05907
1.06371
1.06324
1.06359
1.06359
1.06367
1.06352
1.06358
1.06342
1.06374
1.06488
1.06601
1.06586
1.06591
1.06697
1.06843
1.069
1.06937
1.07015
1.07132
1.07236
1.07329
1.07421
1.0751
1.07597
1.0768
1.07761
1.07835
1.07899
1.07958
1.08008
1.08055
1.08094
1.08131
1.08161
1.08191
1.08215
1.08241
1.0826
1.08285
1.08302
1.08326
1.08341
1.08364
1.08379
1.08402
1.08416
1.08439
1.08451
1.08472
1.08485
1.08507
1.08518
1.08536
1.08546
1.08565
1.08576
1.0859
1.086
1.08618
1.08624
1.08633
1.08645
1.08659
1.08663
1.08682
1.08688
1.08693
1.08714
1.08713
1.08709
1.08757
1.08736
1.08766
1.08818
1.0885
1.08879
1.08865
1.08903
1.08894
1.08768
1.08516
1.08039
1.07188
1.06082
1.04801
1.03942
1.03646
1.03165
1.02231
1.01578
1.01396
1.01237
1.01084
1.01035
1.00914
1.00909
1.00588
1.005
1.00385
1.00248
0.999751
0.996898
0.998667
1.0034
0.998937
1.00315
0.999069
1.00553
1.00013
1.00017
1.00545
0.999086
1.00315
0.99903
1.0033
0.998483
0.996867
0.99988
1.00223
1.00359
1.00459
1.00656
1.0094
1.00896
1.0107
1.01127
1.0128
1.01362
1.01424
1.01587
1.02016
1.02645
1.03029
1.03143
1.03435
1.03454
1.03581
1.03554
1.03641
1.03611
1.03694
1.03717
1.03844
1.0387
1.03999
1.04036
1.04134
1.042
1.04256
1.04336
1.04378
1.04452
1.04484
1.04557
1.0459
1.04655
1.04692
1.04749
1.04789
1.04844
1.04871
1.04938
1.04983
1.05009
1.05017
1.0508
1.05109
1.05148
1.0518
1.05237
1.05239
1.05263
1.05282
1.05315
1.05322
1.0534
1.05338
1.05357
1.05356
1.0537
1.05369
1.05379
1.05366
1.0536
1.05343
1.05332
1.05317
1.05302
1.05284
1.05269
1.05244
1.05214
1.05176
1.0514
1.05103
1.05062
1.0502
1.04976
1.04926
1.0486
1.04781
1.047
1.04612
1.04521
1.04414
1.04304
1.04189
1.04071
1.03935
1.03791
1.0364
1.03479
1.03201
1.02911
1.02777
1.02659
1.02407
1.02128
1.01829
1.0153
1.01218
1.00907
1.00541
1.00204
0.998562
0.995419
0.991748
0.98888
0.985839
0.98367
0.981002
0.979833
0.977668
0.978156
0.978617
0.978143
0.979521
0.98003
0.980823
0.982796
0.983443
0.985806
0.985951
0.987675
0.989043
0.990801
0.991694
0.993381
0.994369
0.995756
0.996903
0.998605
0.999843
1.00122
1.00233
1.00385
1.00491
1.00665
1.00805
1.00982
1.01123
1.01318
1.01469
1.01681
1.01841
1.02059
1.0222
1.02455
1.02646
1.02875
1.03062
1.03307
1.03531
1.03787
1.0404
1.04343
1.04622
1.0495
1.05255
1.0563
1.05965
1.06403
1.06776
1.07198
1.07623
1.08107
1.08593
1.08968
1.09285
1.09532
1.09547
1.09113
1.0838
1.06927
1.04805
1.02306
0.997328
0.975658
0.961638
0.935928
0.919758
0.899004
0.888538
0.876378
0.863717
0.859868
0.853585
0.850738
0.846038
0.845016
0.843771
0.844765
0.844753
0.843249
0.843675
0.843943
0.843715
0.84388
0.844019
0.844428
0.844787
0.845361
0.845923
0.847219
0.848251
0.849712
0.851023
0.852645
0.853647
0.855845
0.854618
0.857089
0.859747
0.862189
0.864777
0.867554
0.870779
0.873382
0.876742
0.877606
0.878194
0.878682
0.879887
0.879475
0.882669
0.883334
0.885916
0.886473
0.888688
0.889873
0.891557
0.892469
0.893346
0.894018
0.895481
0.896202
0.895077
0.897954
0.898665
0.8946
0.897979
0.895596
0.897178
0.901105
0.913854
0.957012
1.01551
1.04383
1.0508
1.0519
1.05359
1.05464
1.05559
1.05616
1.05683
1.05719
1.05796
1.05953
1.06104
1.0612
1.06156
1.06292
1.06467
1.0655
1.06609
1.06709
1.0685
1.06978
1.07095
1.0721
1.0732
1.07427
1.07529
1.07628
1.0772
1.07803
1.07879
1.07947
1.0801
1.08064
1.08113
1.08155
1.08195
1.08227
1.0826
1.08286
1.08315
1.08337
1.08364
1.08383
1.08409
1.08427
1.08451
1.08469
1.08492
1.08508
1.08529
1.08543
1.08565
1.08578
1.08596
1.08608
1.08626
1.08639
1.08652
1.08662
1.0868
1.08688
1.08698
1.08713
1.08721
1.08725
1.08739
1.08738
1.08753
1.08764
1.08778
1.08798
1.08806
1.08808
1.08797
1.08829
1.08873
1.08893
1.08879
1.0896
1.08957
1.08915
1.08825
1.08543
1.07983
1.07164
1.05843
1.04542
1.03866
1.03363
1.024
1.01645
1.01408
1.01224
1.01068
1.0104
1.00886
1.00978
1.00702
1.00468
1.00314
1.00229
0.99986
0.996612
0.998037
1.00336
0.99882
1.00315
0.99899
1.0056
1.00017
1.00014
1.00551
0.999053
1.00305
0.998887
1.00325
0.998138
0.996824
0.99996
1.00215
1.00324
1.00432
1.00642
1.0093
1.00906
1.01056
1.01138
1.01283
1.01361
1.01437
1.01548
1.01847
1.02445
1.02896
1.02995
1.03241
1.03266
1.03423
1.0343
1.03572
1.03546
1.03689
1.03672
1.03766
1.03827
1.03879
1.0397
1.04007
1.04105
1.04134
1.04228
1.04253
1.0434
1.04361
1.04439
1.04469
1.04531
1.04572
1.04625
1.04665
1.04724
1.04751
1.04817
1.04866
1.04888
1.049
1.04959
1.04992
1.05025
1.05062
1.05113
1.0512
1.05138
1.05161
1.05191
1.05199
1.05214
1.05214
1.05228
1.05228
1.05239
1.05239
1.05243
1.05227
1.05218
1.05198
1.05184
1.05165
1.05146
1.05124
1.05102
1.05071
1.05035
1.04991
1.04947
1.04902
1.04851
1.04799
1.04745
1.04686
1.04606
1.04515
1.04421
1.0432
1.04215
1.04092
1.03967
1.03837
1.03701
1.03546
1.03383
1.03213
1.03027
1.02729
1.02421
1.02261
1.02114
1.01841
1.01541
1.01221
1.00907
1.00579
1.00258
0.998835
0.995448
0.991966
0.988851
0.985245
0.98248
0.979524
0.977482
0.974992
0.973957
0.972003
0.972755
0.97326
0.972948
0.974499
0.975109
0.976135
0.978214
0.979043
0.981459
0.981938
0.983715
0.985287
0.987242
0.988358
0.990283
0.991441
0.99296
0.994305
0.99628
0.997542
0.999134
1.00035
1.00205
1.00313
1.00507
1.00653
1.00848
1.00965
1.0116
1.01288
1.01498
1.01682
1.01905
1.0206
1.02292
1.02479
1.02721
1.02904
1.03137
1.03351
1.03636
1.0388
1.04191
1.04451
1.0476
1.05054
1.05433
1.05778
1.06159
1.06552
1.06972
1.0742
1.07871
1.08423
1.08816
1.09177
1.09437
1.09469
1.09048
1.08194
1.06565
1.04513
1.01801
0.997836
0.97503
0.963055
0.939706
0.922761
0.902046
0.894099
0.88092
0.868485
0.862874
0.85749
0.854677
0.848885
0.848793
0.847738
0.847404
0.84762
0.84551
0.846963
0.845973
0.84596
0.846239
0.846305
0.845522
0.845801
0.845647
0.845178
0.845973
0.846297
0.846581
0.846348
0.846587
0.84634
0.846774
0.844624
0.845777
0.847059
0.848419
0.849935
0.851929
0.85449
0.8567
0.859356
0.860386
0.860464
0.861051
0.86193
0.861815
0.864564
0.865281
0.867578
0.868597
0.870353
0.871951
0.873428
0.874849
0.874992
0.876476
0.877669
0.879191
0.877045
0.880806
0.880979
0.878014
0.88012
0.879605
0.879576
0.884535
0.89643
0.939253
0.998411
1.028
1.03649
1.0389
1.04191
1.04407
1.04599
1.04737
1.04876
1.04971
1.05103
1.05306
1.055
1.0555
1.0562
1.05791
1.05998
1.06108
1.06192
1.06316
1.06482
1.06635
1.06777
1.06915
1.07049
1.07178
1.07299
1.07419
1.0753
1.07632
1.07726
1.07813
1.07893
1.07963
1.08028
1.08084
1.08135
1.08179
1.0822
1.08255
1.0829
1.08319
1.0835
1.08375
1.08404
1.08426
1.08454
1.08475
1.08501
1.0852
1.08543
1.0856
1.08583
1.08598
1.08618
1.08631
1.08651
1.08665
1.0868
1.08691
1.0871
1.08719
1.0873
1.08745
1.08752
1.08758
1.08774
1.08772
1.0879
1.08798
1.08802
1.08829
1.08836
1.08828
1.0884
1.08845
1.08897
1.08912
1.08933
1.08974
1.08987
1.08988
1.08959
1.08816
1.08478
1.07932
1.06788
1.05351
1.04222
1.03579
1.02575
1.01707
1.0144
1.01223
1.01061
1.01038
1.00922
1.00879
1.00612
1.00517
1.00374
1.00242
0.999857
0.99715
0.998712
1.00336
0.999023
1.00321
0.999046
1.00557
1.00024
1.00012
1.00536
0.999128
1.00317
0.999005
1.0031
0.998424
0.996765
0.999967
1.00215
1.00348
1.00449
1.00649
1.0096
1.009
1.01076
1.01151
1.01266
1.01359
1.0144
1.01507
1.01768
1.02216
1.02713
1.02842
1.03108
1.03197
1.03288
1.03329
1.03394
1.03422
1.03492
1.0354
1.03622
1.03674
1.03757
1.03814
1.03884
1.03949
1.0401
1.04068
1.04131
1.04183
1.04232
1.04291
1.04333
1.04384
1.04434
1.04481
1.04522
1.0458
1.04612
1.04674
1.04724
1.04743
1.04761
1.0482
1.04852
1.04879
1.0492
1.04969
1.04978
1.04993
1.05014
1.05044
1.05051
1.05067
1.05066
1.05077
1.05075
1.05083
1.0508
1.05084
1.05065
1.0505
1.05028
1.05009
1.04988
1.04964
1.04937
1.04909
1.04871
1.04829
1.04779
1.04727
1.04673
1.04612
1.04551
1.04488
1.04418
1.04326
1.04222
1.04116
1.04005
1.03885
1.03748
1.0361
1.03467
1.03314
1.03143
1.02965
1.02776
1.02569
1.02255
1.01935
1.01754
1.01586
1.01299
1.00986
1.00657
1.00337
1.00005
0.996853
0.993148
0.989862
0.986493
0.983482
0.980043
0.977439
0.974651
0.972781
0.9705
0.969721
0.967926
0.968725
0.969442
0.969414
0.97102
0.972034
0.973197
0.975602
0.97668
0.979547
0.980169
0.982383
0.984183
0.986428
0.987845
0.989968
0.991405
0.99316
0.994684
0.99665
0.99817
0.999866
1.00115
1.00287
1.00406
1.00588
1.00732
1.00914
1.01051
1.01244
1.01391
1.01601
1.0177
1.02003
1.02166
1.02408
1.02606
1.02828
1.03015
1.0327
1.03506
1.03752
1.0402
1.04309
1.04594
1.04915
1.05247
1.05576
1.05959
1.06306
1.06714
1.07067
1.07559
1.07899
1.08425
1.08787
1.09119
1.0935
1.09335
1.08875
1.08186
1.06761
1.05098
1.02857
1.00744
0.985339
0.970691
0.948868
0.931353
0.910526
0.899078
0.882753
0.871973
0.866611
0.859163
0.85566
0.849632
0.846504
0.846292
0.846924
0.844075
0.844656
0.843391
0.844592
0.844646
0.844743
0.844742
0.843899
0.844054
0.84382
0.843953
0.844032
0.844617
0.84377
0.844215
0.843968
0.843331
0.844036
0.841131
0.841339
0.841507
0.842252
0.842891
0.843995
0.845192
0.846368
0.847858
0.848265
0.847661
0.847903
0.848008
0.847808
0.849945
0.850938
0.852427
0.854161
0.855273
0.857177
0.857612
0.859885
0.859718
0.861552
0.861918
0.863999
0.861578
0.86582
0.865253
0.863652
0.864446
0.864835
0.86416
0.86949
0.880611
0.922689
0.981925
1.01175
1.02123
1.02462
1.02884
1.0321
1.03499
1.03723
1.03941
1.04104
1.04296
1.04551
1.04792
1.04881
1.04989
1.05196
1.05439
1.05579
1.0569
1.05841
1.06032
1.06212
1.06381
1.06545
1.06703
1.06856
1.07
1.0714
1.07271
1.07393
1.07507
1.07613
1.07712
1.07801
1.07883
1.07955
1.08021
1.08077
1.0813
1.08175
1.08219
1.08255
1.08293
1.08324
1.08358
1.08386
1.08418
1.08444
1.08473
1.08496
1.08522
1.08543
1.08568
1.08587
1.08608
1.08625
1.08646
1.08662
1.08679
1.08693
1.08713
1.08723
1.08736
1.0875
1.08762
1.08771
1.08785
1.08791
1.08802
1.08805
1.08813
1.08819
1.08846
1.08857
1.08865
1.08882
1.08894
1.08923
1.08958
1.08983
1.09005
1.09043
1.09027
1.08962
1.08772
1.08423
1.07502
1.06214
1.04738
1.03848
1.02779
1.01814
1.01442
1.01226
1.01073
1.0104
1.00881
1.00989
1.00735
1.00454
1.00314
1.00217
0.999935
0.996541
0.997873
1.00349
0.998657
1.00305
0.998993
1.0056
1.00018
1.0001
1.00553
0.999142
1.00311
0.998904
1.00297
0.998262
0.996794
1.00004
1.00213
1.00324
1.00425
1.00596
1.00932
1.00923
1.01063
1.0115
1.01277
1.01359
1.01457
1.01485
1.01666
1.02046
1.02541
1.02696
1.02875
1.02993
1.03107
1.03171
1.03278
1.03301
1.03398
1.03427
1.03502
1.03563
1.03616
1.03691
1.03737
1.03814
1.03854
1.03929
1.03968
1.04038
1.04073
1.04137
1.04174
1.04227
1.04273
1.04321
1.04357
1.04421
1.04452
1.04515
1.04567
1.04583
1.04602
1.04659
1.04693
1.04716
1.04758
1.04802
1.04816
1.04827
1.04849
1.04877
1.04883
1.04898
1.04897
1.04905
1.049
1.04906
1.04902
1.04901
1.0488
1.04861
1.04836
1.04813
1.04788
1.04759
1.04726
1.04692
1.04649
1.046
1.04543
1.04483
1.0442
1.04349
1.0428
1.04207
1.04126
1.04023
1.03908
1.03792
1.0367
1.03537
1.03388
1.0324
1.03084
1.02918
1.02733
1.02543
1.02339
1.02116
1.01792
1.01465
1.01269
1.01087
1.00794
1.00479
1.0015
0.998346
0.995094
0.992021
0.988473
0.985382
0.982204
0.979391
0.976147
0.97372
0.971152
0.969443
0.967497
0.966748
0.965413
0.966453
0.967382
0.967429
0.969442
0.970472
0.971992
0.97437
0.97572
0.978464
0.979439
0.981601
0.983501
0.985771
0.987201
0.989315
0.990855
0.992465
0.993982
0.99603
0.997416
0.998962
1.00034
1.00207
1.00322
1.00503
1.00671
1.00849
1.00972
1.01161
1.01327
1.01509
1.01709
1.01904
1.02096
1.02309
1.02531
1.02726
1.02967
1.03158
1.03434
1.03663
1.03944
1.04218
1.04539
1.04785
1.05166
1.05437
1.05888
1.06184
1.06635
1.06944
1.07445
1.07816
1.0827
1.08701
1.08998
1.09189
1.09166
1.08653
1.0783
1.06492
1.04883
1.02727
1.0079
0.985955
0.971408
0.95121
0.932165
0.91491
0.901242
0.890135
0.876729
0.8711
0.8618
0.860158
0.851484
0.852963
0.850525
0.850707
0.848283
0.848857
0.847121
0.847972
0.847036
0.846963
0.846217
0.846546
0.845333
0.846758
0.846282
0.846458
0.845827
0.846141
0.845905
0.846362
0.845451
0.844695
0.842866
0.842783
0.842667
0.842942
0.843921
0.844276
0.844455
0.845816
0.84605
0.846184
0.844047
0.843752
0.84221
0.841374
0.841859
0.842279
0.842579
0.843545
0.843617
0.845757
0.845792
0.847506
0.84661
0.848915
0.848807
0.851452
0.847883
0.852683
0.851683
0.85039
0.850729
0.851852
0.850549
0.855969
0.866212
0.907149
0.966396
0.995916
1.00562
1.00951
1.01471
1.01897
1.0228
1.0259
1.02889
1.03123
1.03379
1.03691
1.03983
1.04114
1.04262
1.0451
1.0479
1.04964
1.05106
1.05285
1.05504
1.05711
1.05908
1.061
1.06285
1.06463
1.06631
1.06794
1.06947
1.0709
1.07224
1.07351
1.0747
1.07579
1.0768
1.0777
1.07852
1.07925
1.07991
1.08049
1.08103
1.0815
1.08195
1.08235
1.08275
1.08309
1.08346
1.08378
1.08412
1.08439
1.0847
1.08494
1.08523
1.08545
1.0857
1.0859
1.08613
1.08632
1.08652
1.08668
1.0869
1.08703
1.0872
1.08734
1.08749
1.08759
1.08773
1.08781
1.08796
1.08798
1.08814
1.08823
1.08833
1.08851
1.08871
1.08884
1.08886
1.08915
1.08966
1.08985
1.08997
1.09051
1.09065
1.09043
1.08947
1.08738
1.0802
1.06982
1.05368
1.04196
1.02997
1.01924
1.01475
1.01222
1.01059
1.01034
1.00914
1.00884
1.00631
1.00499
1.00375
1.00238
0.999935
0.997159
0.998703
1.00344
0.999208
1.00323
0.99903
1.00565
1.00029
1.0002
1.00535
0.998982
1.00306
0.999
1.00349
0.998456
0.996833
0.999912
1.00205
1.00343
1.00464
1.0069
1.00926
1.00915
1.01086
1.01161
1.01271
1.01374
1.0144
1.01488
1.01616
1.01854
1.02318
1.02544
1.02733
1.02877
1.0295
1.03025
1.03084
1.03139
1.03207
1.03259
1.03332
1.03381
1.03456
1.03506
1.0358
1.03627
1.03698
1.03742
1.03805
1.0386
1.039
1.03963
1.04
1.04048
1.04098
1.04142
1.04182
1.0424
1.04277
1.04337
1.04392
1.04405
1.04424
1.04484
1.04516
1.04534
1.04578
1.0462
1.04636
1.04643
1.04665
1.04692
1.04697
1.04712
1.0471
1.04714
1.04707
1.04708
1.04703
1.04699
1.04676
1.04653
1.04623
1.04596
1.04567
1.04533
1.04495
1.04454
1.04405
1.04349
1.04286
1.04217
1.04145
1.04066
1.03989
1.03907
1.03816
1.03702
1.03579
1.03454
1.03323
1.03179
1.03021
1.02865
1.02699
1.02522
1.02327
1.02129
1.01913
1.0168
1.01354
1.01026
1.00823
1.00636
1.00343
1.00036
0.997199
0.994176
0.991092
0.988208
0.984913
0.982088
0.97922
0.976726
0.974049
0.971769
0.969724
0.968136
0.967187
0.965636
0.96561
0.965746
0.967777
0.96714
0.970001
0.970491
0.972732
0.974557
0.976553
0.978634
0.980246
0.981802
0.984273
0.985899
0.987975
0.989301
0.991676
0.99258
0.994825
0.996
0.998363
0.999246
1.00134
1.00228
1.00441
1.00514
1.00755
1.0083
1.01099
1.01173
1.01439
1.01518
1.01816
1.01936
1.02214
1.02308
1.02644
1.02739
1.03067
1.03196
1.0355
1.03711
1.04076
1.04248
1.04649
1.04832
1.05265
1.05505
1.05939
1.06231
1.06694
1.0703
1.07438
1.07831
1.08212
1.08586
1.0888
1.0903
1.09
1.08531
1.07842
1.06654
1.05253
1.03338
1.01319
0.993256
0.976847
0.95776
0.939549
0.922273
0.907196
0.894185
0.879458
0.87373
0.863867
0.86178
0.854298
0.850906
0.847822
0.849894
0.846726
0.846256
0.84507
0.845008
0.844527
0.845256
0.844104
0.845063
0.843659
0.84421
0.843506
0.844501
0.84358
0.84442
0.843825
0.844158
0.843148
0.843675
0.840333
0.841012
0.840532
0.841562
0.841665
0.842609
0.84272
0.844193
0.84441
0.844782
0.841996
0.842085
0.839769
0.838956
0.838417
0.838859
0.837684
0.838875
0.837446
0.839014
0.83771
0.839541
0.837362
0.839494
0.83826
0.840937
0.837147
0.841693
0.840108
0.839692
0.839127
0.840249
0.838766
0.844121
0.853478
0.892703
0.952132
0.981418
0.989784
0.994045
1.00001
1.00509
1.00972
1.01359
1.01734
1.02041
1.02362
1.0273
1.03075
1.03253
1.03444
1.03732
1.04052
1.04263
1.04439
1.04648
1.04895
1.05132
1.05358
1.05579
1.05792
1.05999
1.06193
1.0638
1.06556
1.06722
1.06877
1.07026
1.07166
1.07297
1.07418
1.07528
1.07629
1.0772
1.07802
1.07874
1.07941
1.08
1.08056
1.08104
1.08153
1.08195
1.08239
1.08277
1.08316
1.0835
1.08385
1.08415
1.08448
1.08474
1.08503
1.08526
1.08554
1.08576
1.08599
1.08618
1.08643
1.08659
1.08678
1.08696
1.08713
1.08723
1.08742
1.0875
1.08766
1.08779
1.08792
1.08805
1.08814
1.08818
1.08851
1.08869
1.08873
1.089
1.08942
1.08969
1.08992
1.0903
1.09059
1.09075
1.09033
1.08921
1.08392
1.07602
1.06033
1.04661
1.03263
1.02059
1.01499
1.01228
1.01064
1.01047
1.00886
1.00972
1.00717
1.00455
1.00323
1.00218
0.999874
0.996658
0.997684
1.0033
0.998571
1.00303
0.998988
1.00558
1.00022
1.00016
1.00548
0.999112
1.00305
0.99893
1.00311
0.998282
0.996816
1.00004
1.00204
1.00329
1.00408
1.00543
1.00937
1.00931
1.01077
1.01156
1.01281
1.01373
1.01457
1.01471
1.01579
1.01748
1.02122
1.02382
1.02497
1.02653
1.02769
1.02835
1.02944
1.02972
1.0307
1.031
1.0318
1.03223
1.03293
1.03346
1.03407
1.03463
1.03515
1.03574
1.03619
1.03683
1.03717
1.03779
1.03813
1.03864
1.03907
1.03955
1.03989
1.04047
1.04085
1.04147
1.04201
1.04213
1.0423
1.04292
1.04321
1.04338
1.04381
1.04421
1.04439
1.04444
1.04467
1.04489
1.04494
1.04507
1.04504
1.04506
1.04496
1.04495
1.04487
1.04478
1.04454
1.04426
1.04393
1.04361
1.04328
1.04289
1.04245
1.04198
1.04143
1.04081
1.04011
1.03934
1.03853
1.03767
1.03683
1.03593
1.03492
1.0337
1.03241
1.0311
1.02971
1.02819
1.02656
1.02494
1.02322
1.02137
1.01939
1.01737
1.01516
1.01279
1.00958
1.00639
1.00439
1.00253
0.999698
0.996793
0.993907
0.991148
0.988454
0.985923
0.98314
0.980572
0.978066
0.975757
0.97343
0.971268
0.969537
0.967902
0.967117
0.965992
0.966081
0.965518
0.968421
0.96685
0.970498
0.969964
0.973198
0.974012
0.976967
0.978086
0.980501
0.981292
0.984393
0.985454
0.988097
0.988902
0.99172
0.992271
0.994977
0.995643
0.99835
0.998664
1.00121
1.00184
1.00424
1.005
1.00761
1.0084
1.01062
1.01152
1.01408
1.01518
1.01802
1.01914
1.02206
1.02316
1.02624
1.02757
1.03049
1.0321
1.03502
1.03705
1.04025
1.04253
1.046
1.0485
1.05193
1.05514
1.05876
1.06186
1.06566
1.06984
1.07335
1.07728
1.08115
1.08477
1.08728
1.08882
1.08858
1.08346
1.07626
1.06288
1.05127
1.03135
1.01368
0.993567
0.980285
0.960033
0.943513
0.924936
0.91342
0.899571
0.885043
0.878023
0.868604
0.865126
0.858468
0.857293
0.851425
0.852579
0.8512
0.851104
0.848561
0.849533
0.848397
0.848446
0.846558
0.847759
0.846619
0.847389
0.846249
0.846759
0.84654
0.846734
0.8461
0.846217
0.845192
0.845814
0.843139
0.843157
0.842397
0.843372
0.843336
0.844364
0.844351
0.845817
0.845838
0.846286
0.843771
0.843613
0.841385
0.840012
0.839581
0.839683
0.838793
0.838979
0.838116
0.838487
0.837157
0.838357
0.835014
0.836727
0.834391
0.836675
0.83144
0.835192
0.83313
0.831556
0.830647
0.831405
0.829436
0.834279
0.842558
0.87972
0.939088
0.968431
0.975085
0.979149
0.985407
0.991008
0.996178
1.00065
1.00505
1.00876
1.01259
1.0168
1.02077
1.02303
1.02537
1.02866
1.03228
1.03477
1.03689
1.03931
1.04208
1.04473
1.04729
1.0498
1.05223
1.05459
1.05682
1.05896
1.06097
1.06286
1.06464
1.06635
1.06797
1.0695
1.07093
1.07226
1.07348
1.07458
1.07558
1.07648
1.07731
1.07803
1.07871
1.07932
1.07989
1.08041
1.08093
1.08139
1.08185
1.08225
1.08266
1.08302
1.0834
1.08371
1.08405
1.08433
1.08464
1.08491
1.08518
1.08541
1.08569
1.08589
1.08611
1.08632
1.08652
1.08666
1.08688
1.08699
1.08716
1.08728
1.08748
1.08763
1.08776
1.08785
1.08811
1.08833
1.08847
1.08872
1.08901
1.08935
1.08972
1.09003
1.09033
1.0907
1.09066
1.09019
1.08653
1.08071
1.0667
1.05207
1.03614
1.02224
1.01525
1.01233
1.01066
1.01043
1.00904
1.00914
1.00655
1.00507
1.00375
1.00231
1.00009
0.997121
0.998891
1.00332
0.998978
1.00321
0.999013
1.00565
1.00028
1.00024
1.00532
0.999044
1.00315
0.998947
1.00316
0.998471
0.996831
0.999989
1.00201
1.00355
1.0047
1.00722
1.00905
1.00923
1.01093
1.01166
1.01282
1.01396
1.01444
1.01488
1.01552
1.01623
1.01918
1.02211
1.02384
1.02496
1.026
1.02653
1.02747
1.02781
1.02874
1.02904
1.02986
1.03025
1.03103
1.03146
1.03217
1.03259
1.03326
1.03371
1.03425
1.0348
1.03522
1.03573
1.03618
1.03657
1.03705
1.03751
1.03788
1.0384
1.03878
1.03944
1.03998
1.04009
1.04024
1.04086
1.04115
1.04129
1.04168
1.0421
1.04227
1.04229
1.04253
1.04272
1.04277
1.04289
1.04285
1.04283
1.04269
1.04262
1.04255
1.04242
1.04215
1.04187
1.04149
1.04112
1.04074
1.04029
1.0398
1.03928
1.03868
1.038
1.03722
1.03638
1.0355
1.03458
1.03369
1.03271
1.03163
1.03035
1.02904
1.02768
1.02624
1.02468
1.02304
1.02141
1.01966
1.0178
1.01585
1.01385
1.01166
1.00937
1.00629
1.00333
1.00143
0.999749
0.997203
0.994752
0.992218
0.989794
0.987415
0.985203
0.982717
0.980403
0.978042
0.975849
0.973499
0.971546
0.969777
0.968312
0.967449
0.966376
0.966055
0.965878
0.968448
0.967348
0.97061
0.970701
0.973181
0.974441
0.977011
0.978417
0.98067
0.981776
0.984443
0.985901
0.987929
0.989323
0.991519
0.992474
0.995123
0.995832
0.998413
0.999114
1.00128
1.00212
1.00442
1.00529
1.00765
1.0087
1.01109
1.01215
1.01425
1.0156
1.01837
1.01959
1.02218
1.02376
1.02639
1.028
1.03077
1.03279
1.03566
1.03761
1.04079
1.04309
1.04635
1.04898
1.05242
1.05538
1.05944
1.0626
1.06586
1.06969
1.07353
1.07683
1.08008
1.08363
1.08612
1.08743
1.08706
1.08193
1.07527
1.06482
1.05206
1.03572
1.01925
0.998929
0.984622
0.964451
0.94877
0.930173
0.917713
0.901473
0.887316
0.881612
0.870478
0.865702
0.859215
0.854902
0.852073
0.851045
0.849503
0.847569
0.847552
0.845411
0.846888
0.845704
0.846458
0.844913
0.845956
0.844901
0.845573
0.844289
0.844634
0.844198
0.844411
0.844178
0.843474
0.844355
0.841428
0.840466
0.841099
0.841134
0.841772
0.842405
0.843429
0.84391
0.844795
0.844278
0.843024
0.841613
0.840516
0.838115
0.838903
0.837587
0.837819
0.836931
0.837389
0.836924
0.836517
0.836178
0.834524
0.834542
0.833459
0.833781
0.83054
0.831776
0.830973
0.827231
0.827684
0.825624