/*--------------------------------*- C++ -*----------------------------------*\
| =========                 |                                                 |
| \\      /  F ield         | OpenFOAM: The Open Source CFD Toolbox           |
|  \\    /   O peration     | Version:  v2006                                 |
|   \\  /    A nd           | Website:  www.openfoam.com                      |
|    \\/     M anipulation  |                                                 |
\*---------------------------------------------------------------------------*/
FoamFile
{
    version     2.0;
    format      ascii;
    class       volVectorField;
    location    "100";
    object      U;
}
// * * * * * * * * * * * * * * * * * * * * * * * * * * * * * * * * * * * * * //

dimensions      [0 1 -1 0 0 0 0];


internalField   nonuniform List<vector> 
93840
(
(0.872427 0.03371 -9.3507e-17)
(0.863778 0.0334297 -4.55017e-17)
(0.857062 0.0304453 1.90122e-16)
(0.865838 0.0424203 -1.871e-16)
(0.857311 0.0300449 3.64058e-16)
(0.859156 0.0407909 -8.26029e-16)
(0.863049 0.0397242 1.35764e-16)
(0.864746 0.0354264 1.32868e-16)
(0.867426 0.0333339 -2.57521e-16)
(0.858378 0.0275885 -1.50248e-16)
(0.858317 0.0299361 -5.61512e-17)
(0.85007 0.0205887 2.529e-16)
(0.841422 0.0231269 -1.17054e-16)
(0.832681 0.0148564 3.34724e-16)
(0.820638 0.0166448 4.70607e-17)
(0.812671 0.0112787 9.76241e-17)
(0.803006 0.0141173 1.0512e-16)
(0.798326 0.00878613 1.05695e-16)
(0.78923 0.0104704 1.0782e-16)
(0.782622 0.00930948 9.88771e-17)
(0.762151 0.00909982 1.11572e-16)
(0.722614 0.00923418 8.49109e-17)
(0.673166 0.00908291 1.02104e-16)
(0.645811 0.00813447 6.85724e-17)
(0.618902 0.00669336 9.74974e-17)
(0.602399 0.00165114 5.82298e-17)
(0.610271 -0.000422323 9.60662e-17)
(0.603054 -0.00474906 5.46377e-17)
(0.590901 -0.00363202 8.31388e-17)
(0.564074 -0.0010609 5.32708e-17)
(0.544972 -0.00468351 7.56892e-17)
(0.485074 -0.00625604 5.10105e-17)
(0.492229 -0.027412 7.02074e-17)
(0.517907 -0.0291102 5.2179e-17)
(0.472695 -0.0260769 6.8869e-17)
(0.49671 -0.0288299 5.32527e-17)
(0.463111 -0.0235183 6.76043e-17)
(0.481306 -0.0272194 5.4382e-17)
(0.454423 -0.0214311 6.65012e-17)
(0.467502 -0.0243814 5.52567e-17)
(0.446229 -0.018753 6.58513e-17)
(0.457622 -0.0210569 5.57812e-17)
(0.439836 -0.0167651 6.54174e-17)
(0.448717 -0.0182074 5.63916e-17)
(0.433714 -0.0152141 6.49954e-17)
(0.439786 -0.0158568 5.68179e-17)
(0.426337 -0.0131303 6.47307e-17)
(0.431365 -0.0127221 5.72857e-17)
(0.420448 -0.0108756 6.44119e-17)
(0.423162 -0.0102665 5.77998e-17)
(0.413688 -0.00816204 6.40715e-17)
(0.416714 -0.00748656 5.8401e-17)
(0.407168 -0.00642223 6.36849e-17)
(0.406238 -0.00466212 5.89847e-17)
(0.400102 -0.00140444 6.33677e-17)
(0.404263 -0.000219207 5.96088e-17)
(0.398188 0.000105396 6.3097e-17)
(0.398183 0.000369059 6.02428e-17)
(0.390664 0.0013678 6.28478e-17)
(0.389514 0.00386653 6.08106e-17)
(0.384989 0.00547925 6.27099e-17)
(0.384708 0.0063621 6.12044e-17)
(0.379552 0.00859163 6.28338e-17)
(0.379859 0.0107767 6.16981e-17)
(0.37665 0.0120036 6.3152e-17)
(0.376052 0.0136097 6.21171e-17)
(0.373501 0.0155707 6.33698e-17)
(0.374331 0.0169587 6.26628e-17)
(0.371855 0.01815 6.3923e-17)
(0.371777 0.0199058 6.36073e-17)
(0.37043 0.0212907 6.4347e-17)
(0.369944 0.0227828 6.44567e-17)
(0.368971 0.0244263 6.55025e-17)
(0.36967 0.0258385 6.51689e-17)
(0.369103 0.027155 6.55134e-17)
(0.36988 0.0287768 6.46222e-17)
(0.369991 0.0301131 6.68202e-17)
(0.370681 0.0317036 6.56125e-17)
(0.371481 0.0332026 6.7381e-17)
(0.37251 0.0343744 6.57756e-17)
(0.372908 0.0356647 6.69473e-17)
(0.373992 0.0371047 6.62095e-17)
(0.375267 0.0387444 6.74185e-17)
(0.377622 0.0404696 6.65872e-17)
(0.379942 0.0417963 6.68789e-17)
(0.381734 0.0432001 6.63998e-17)
(0.384217 0.0445966 6.69901e-17)
(0.386391 0.0458483 6.51354e-17)
(0.38892 0.0473269 6.59236e-17)
(0.391396 0.0490452 6.43308e-17)
(0.395193 0.0510114 6.64493e-17)
(0.399524 0.0525439 6.40955e-17)
(0.404138 0.0541238 6.37983e-17)
(0.409146 0.0557114 6.24106e-17)
(0.414127 0.0572919 6.41434e-17)
(0.41978 0.0588519 6.31914e-17)
(0.425834 0.0601982 6.54981e-17)
(0.432057 0.061661 6.21365e-17)
(0.438238 0.0630415 6.42401e-17)
(0.445114 0.0645456 6.65888e-17)
(0.452859 0.0657571 6.4273e-17)
(0.46025 0.0669486 6.67627e-17)
(0.467206 0.0689379 7.02667e-17)
(0.48223 0.0725339 6.61878e-17)
(0.499627 0.0720669 6.89472e-17)
(0.504831 0.068802 6.2737e-17)
(0.507121 0.0693752 7.00584e-17)
(0.518357 0.07229 6.37343e-17)
(0.531517 0.0728955 7.35523e-17)
(0.544915 0.0731151 6.61503e-17)
(0.558345 0.0726678 7.21384e-17)
(0.571682 0.0720114 6.33245e-17)
(0.584955 0.0710741 6.90154e-17)
(0.601188 0.0706248 6.21144e-17)
(0.616249 0.068273 6.84386e-17)
(0.63163 0.0657561 6.42807e-17)
(0.645369 0.0624161 6.45864e-17)
(0.661996 0.0597644 6.24819e-17)
(0.675704 0.0544186 6.29841e-17)
(0.689894 0.0499156 6.09997e-17)
(0.700711 0.0433358 6.12655e-17)
(0.713797 0.0384767 6.12574e-17)
(0.721091 0.029812 6.07731e-17)
(0.732448 0.0232678 5.96775e-17)
(0.732754 0.0131403 5.96021e-17)
(0.732216 0.00785471 5.75263e-17)
(0.737402 -0.000467707 5.7712e-17)
(0.731802 -0.00753183 5.56957e-17)
(0.732427 -0.0110338 5.56644e-17)
(0.731701 -0.0200318 5.36893e-17)
(0.7246 -0.023546 5.35766e-17)
(0.723496 -0.030465 5.17563e-17)
(0.715669 -0.0332069 5.18429e-17)
(0.715956 -0.0388294 4.97762e-17)
(0.711828 -0.0418369 5.05884e-17)
(0.707807 -0.0472925 4.81288e-17)
(0.702614 -0.0497662 4.98732e-17)
(0.70051 -0.0537326 4.90888e-17)
(0.696337 -0.0560609 5.04577e-17)
(0.694541 -0.0594218 4.99008e-17)
(0.692549 -0.0625215 5.13484e-17)
(0.690296 -0.066632 5.02028e-17)
(0.686326 -0.0696238 5.16466e-17)
(0.683546 -0.0723239 5.3045e-17)
(0.681442 -0.0756331 5.31432e-17)
(0.679456 -0.0791291 5.33769e-17)
(0.677229 -0.0823989 5.43049e-17)
(0.67573 -0.0866126 5.39055e-17)
(0.672446 -0.0905726 5.42529e-17)
(0.668951 -0.0940745 5.46824e-17)
(0.665484 -0.0974725 5.34579e-17)
(0.662556 -0.101258 5.42336e-17)
(0.658839 -0.105369 5.2864e-17)
(0.655173 -0.109466 5.3529e-17)
(0.650437 -0.113493 5.25382e-17)
(0.645594 -0.117809 5.21548e-17)
(0.640377 -0.121878 5.1071e-17)
(0.635054 -0.126434 5.10929e-17)
(0.627842 -0.130242 4.96706e-17)
(0.620425 -0.133597 5.08588e-17)
(0.614512 -0.137088 4.99073e-17)
(0.608799 -0.142166 5.0983e-17)
(0.601582 -0.147759 4.98367e-17)
(0.592819 -0.153237 5.05488e-17)
(0.583261 -0.15862 4.93503e-17)
(0.571933 -0.164121 4.99509e-17)
(0.558868 -0.168593 4.90354e-17)
(0.545802 -0.17309 5.04029e-17)
(0.533395 -0.178292 4.83377e-17)
(0.517705 -0.185111 4.99593e-17)
(0.497397 -0.190363 4.85568e-17)
(0.474702 -0.194988 4.98595e-17)
(0.452048 -0.197099 4.8435e-17)
(0.428823 -0.199416 4.88939e-17)
(0.397175 -0.201929 4.94009e-17)
(0.361474 -0.201878 4.90975e-17)
(0.319941 -0.200117 4.96826e-17)
(0.2681 -0.187633 4.87043e-17)
(0.212601 -0.165238 4.85055e-17)
(0.155753 -0.124199 4.68352e-17)
(0.103874 -0.0731244 4.67747e-17)
(0.00746927 0.0554395 1.84823e-17)
(-0.00695803 0.149561 3.70292e-17)
(-0.00408789 0.381997 5.10429e-17)
(0.0952532 0.518382 5.64517e-17)
(0.212479 0.698069 5.84634e-17)
(0.429414 0.755213 5.96737e-17)
(0.593587 0.770588 5.98244e-17)
(0.720472 0.704912 5.972e-17)
(0.761225 0.665464 6.00369e-17)
(0.875118 0.659837 5.99601e-17)
(0.961099 0.634672 5.98144e-17)
(1.03552 0.596926 5.93575e-17)
(1.069 0.553123 5.94756e-17)
(1.10805 0.510599 5.91425e-17)
(1.13812 0.484438 5.88692e-17)
(1.1432 0.451769 5.89354e-17)
(1.15641 0.423202 5.9332e-17)
(1.15683 0.398018 5.95543e-17)
(1.17175 0.377594 5.92238e-17)
(1.16534 0.355581 5.96635e-17)
(1.15951 0.336615 5.95381e-17)
(1.15675 0.320688 6.07328e-17)
(1.15232 0.305431 6.02327e-17)
(1.14947 0.290985 6.11878e-17)
(1.14297 0.277937 6.0319e-17)
(1.13975 0.266088 6.17918e-17)
(1.13452 0.255356 6.07468e-17)
(1.13028 0.243862 6.18363e-17)
(1.12442 0.233952 6.11312e-17)
(1.11986 0.223487 6.23682e-17)
(1.1142 0.214345 6.08235e-17)
(1.10983 0.20541 6.17345e-17)
(1.10346 0.195377 6.06891e-17)
(1.0973 0.18637 6.17307e-17)
(1.08958 0.177741 6.09278e-17)
(1.08385 0.170807 6.23133e-17)
(1.07804 0.162826 6.11753e-17)
(1.07383 0.155645 6.24491e-17)
(1.06873 0.148392 6.14779e-17)
(1.06479 0.138789 6.27368e-17)
(1.06599 0.131345 6.09666e-17)
(1.059 0.125495 6.20463e-17)
(1.04982 0.119641 6.12493e-17)
(1.04296 0.11412 6.26929e-17)
(1.03329 0.109012 6.22427e-17)
(1.02688 0.104065 6.31172e-17)
(1.01693 0.0990673 6.22474e-17)
(1.01005 0.0944147 6.35998e-17)
(0.999883 0.0899459 6.22606e-17)
(1.00113 0.0856816 6.26406e-17)
(1.00121 0.0791232 6.09617e-17)
(1.00164 0.0729465 6.24597e-17)
(0.998528 0.0667123 6.14468e-17)
(1.00164 0.0611295 6.25941e-17)
(0.989565 0.0566376 6.07338e-17)
(0.990713 0.0528791 6.16559e-17)
(0.981404 0.0479429 6.02244e-17)
(0.982171 0.0445065 6.05809e-17)
(0.973713 0.0398043 5.96521e-17)
(0.974396 0.036241 5.94726e-17)
(0.965869 0.0305809 5.77545e-17)
(0.969134 0.0273293 5.70865e-17)
(0.962549 0.0218394 5.6279e-17)
(0.965358 0.0173774 5.5593e-17)
(0.956763 0.0121257 5.42944e-17)
(0.960355 0.00976006 5.36739e-17)
(0.960894 0.00229045 5.24968e-17)
(0.95401 0.00020574 5.19764e-17)
(0.951059 -0.00250541 5.12417e-17)
(0.971303 -0.0112762 5.11014e-17)
(0.952684 -0.0156592 5.05821e-17)
(0.967828 -0.0206079 5.09018e-17)
(0.956147 -0.0248558 5.06926e-17)
(0.94428 -0.0313364 5.11128e-17)
(0.901278 -0.0326211 5.12709e-17)
(0.757864 -0.0260045 5.15045e-17)
(0.462483 -0.0197478 5.15257e-17)
(0.291691 -0.0170425 5.37867e-17)
(0.299263 -0.0201931 5.52757e-17)
(0.325631 -0.0233547 5.86479e-17)
(0.337963 -0.0255801 6.06264e-17)
(0.34845 -0.028147 6.39341e-17)
(0.355641 -0.0303336 6.51926e-17)
(0.361615 -0.0326234 6.78344e-17)
(0.364266 -0.0342298 6.72701e-17)
(0.366712 -0.0361991 6.96114e-17)
(0.36476 -0.0388346 6.82949e-17)
(0.355241 -0.0401511 7.04401e-17)
(0.34662 -0.0381094 6.89962e-17)
(0.349561 -0.0377451 6.91389e-17)
(0.349782 -0.0405191 6.76704e-17)
(0.339817 -0.0426786 6.82926e-17)
(0.326618 -0.0409666 6.57407e-17)
(0.322636 -0.0392952 6.50245e-17)
(0.320541 -0.039979 6.3495e-17)
(0.313651 -0.0414048 6.37679e-17)
(0.302671 -0.0412376 6.08878e-17)
(0.293284 -0.0402907 6.04846e-17)
(0.284735 -0.0396738 6.00096e-17)
(0.2756 -0.0391119 6.01946e-17)
(0.266331 -0.0385117 6.09399e-17)
(0.25656 -0.0377337 6.02697e-17)
(0.246969 -0.0369638 5.87832e-17)
(0.236829 -0.0359941 5.91118e-17)
(0.227251 -0.0348542 5.64663e-17)
(0.218008 -0.0337394 5.61106e-17)
(0.209118 -0.0327115 5.47873e-17)
(0.200222 -0.0316722 5.71332e-17)
(0.19154 -0.0306222 5.53756e-17)
(0.182944 -0.0295444 5.76224e-17)
(0.174558 -0.0284719 5.60193e-17)
(0.16634 -0.0273875 5.42254e-17)
(0.158208 -0.0262871 5.68591e-17)
(0.1505 -0.0252182 5.59635e-17)
(0.142642 -0.024113 5.59275e-17)
(0.135438 -0.0230752 5.4799e-17)
(0.12783 -0.0219574 5.47677e-17)
(0.121158 -0.0209393 5.27819e-17)
(0.113833 -0.0197769 5.42376e-17)
(0.107994 -0.0188359 5.20124e-17)
(0.10105 -0.0177544 5.18707e-17)
(0.0958586 -0.0169996 5.04702e-17)
(0.0887646 -0.0159368 4.90493e-17)
(0.0838888 -0.0151609 5.02386e-17)
(0.0769206 -0.0139403 4.74028e-17)
(0.0730723 -0.0132358 4.82256e-17)
(0.0664235 -0.0120574 4.9886e-17)
(0.063418 -0.0115299 4.79764e-17)
(0.0568238 -0.0103778 4.74268e-17)
(0.0544241 -0.00995351 4.65632e-17)
(0.0476657 -0.00874243 4.72488e-17)
(0.0460347 -0.00841383 4.42176e-17)
(0.0394524 -0.00719493 4.64901e-17)
(0.0387659 -0.00704867 4.28317e-17)
(0.0320823 -0.00582571 4.55264e-17)
(0.0320128 -0.00582312 4.45953e-17)
(0.0253422 -0.00463088 4.39201e-17)
(0.0257363 -0.00475645 4.03106e-17)
(0.0188564 -0.00344384 4.31561e-17)
(0.0204581 -0.00376665 3.95653e-17)
(0.0137849 -0.00244178 3.82649e-17)
(0.0162645 -0.0028783 4.10639e-17)
(0.00968555 -0.00178261 3.86868e-17)
(0.0131665 -0.0023459 4.02472e-17)
(0.00633452 -0.00147114 3.92357e-17)
(0.0111119 -0.00236728 3.74181e-17)
(0.00449468 -0.00125598 3.80042e-17)
(0.0105509 -0.00301565 3.73281e-17)
(0.00478228 -0.00151168 3.71325e-17)
(0.0138874 -0.00391637 3.82511e-17)
(0.0067362 -0.00426171 3.75127e-17)
(0.0226284 -0.00845768 3.84635e-17)
(0.0198626 -0.0102066 4.03534e-17)
(0.0419988 -0.0357793 3.69615e-17)
(0.0573539 -0.076844 4.93256e-17)
(0.135367 0.0110026 1.94243e-17)
(0.21174 0.00442054 7.21608e-17)
(0.306248 0.0195728 3.03538e-17)
(0.404791 0.017621 7.98151e-17)
(0.488165 0.0182599 4.16193e-17)
(0.56836 0.0150585 8.97706e-17)
(0.602985 0.00728632 5.66773e-17)
(0.61807 0.00820238 9.48504e-17)
(0.638717 0.00913604 6.73738e-17)
(0.661938 0.00979001 1.00108e-16)
(0.713632 0.00976384 7.98284e-17)
(0.760243 0.00934097 1.07885e-16)
(0.782116 0.00915844 9.86781e-17)
(0.788991 0.0101589 1.17157e-16)
(0.798709 0.00919374 8.0747e-17)
(0.803301 0.0144027 1.69833e-16)
(0.813034 0.011349 5.959e-17)
(0.818968 0.0168413 2.2351e-16)
(0.834681 0.0145208 -1.91663e-16)
(0.840693 0.0237725 5.11334e-16)
(0.850981 0.0207312 -9.1986e-17)
(0.855475 0.0312652 2.05352e-16)
(0.857846 0.0278233 2.2677e-17)
(0.866692 0.0337289 1.57337e-16)
(0.864658 0.0356606 -5.81936e-17)
(0.863031 0.0399501 -2.98199e-16)
(0.859116 0.0408245 -1.2143e-16)
(0.857272 0.0300402 2.16846e-16)
(0.86577 0.0427603 -3.77078e-18)
(0.857093 0.0308279 1.17822e-16)
(0.863784 0.03372 -1.33142e-16)
(0.872451 0.0339655 -1.16035e-16)
(0.872454 0.0338474 -1.25495e-16)
(0.863773 0.0336255 -1.3795e-16)
(0.8571 0.0306984 1.22892e-16)
(0.865777 0.0426424 -7.96957e-17)
(0.857323 0.030109 9.85505e-17)
(0.859056 0.0408346 -7.58909e-17)
(0.862937 0.0399877 -4.01522e-16)
(0.864595 0.0356527 -2.37097e-17)
(0.866567 0.033772 2.12999e-16)
(0.858248 0.0277332 1.50732e-17)
(0.856123 0.031207 2.38299e-16)
(0.850289 0.0209465 -1.57573e-16)
(0.840903 0.0238157 5.29384e-16)
(0.83313 0.0149853 -3.26293e-16)
(0.819807 0.0168494 3.42563e-16)
(0.813159 0.0113945 1.05502e-17)
(0.802998 0.014364 1.77052e-16)
(0.798709 0.00912481 8.70594e-17)
(0.789615 0.0107081 1.16052e-16)
(0.78471 0.0093106 9.71512e-17)
(0.770504 0.00982397 1.09919e-16)
(0.735914 0.0103664 8.77795e-17)
(0.688767 0.0104239 1.04527e-16)
(0.661887 0.0101584 7.02529e-17)
(0.638702 0.0102217 1.02155e-16)
(0.609125 0.00781886 5.75867e-17)
(0.600091 0.00685028 9.74481e-17)
(0.586001 0.00407389 6.10226e-17)
(0.575359 -0.00164184 8.40263e-17)
(0.571757 -0.00852223 6.01565e-17)
(0.56846 -0.0137053 8.17237e-17)
(0.563923 -0.0211199 5.92808e-17)
(0.558578 -0.00580798 7.86613e-17)
(0.54674 -0.0250059 6.00949e-17)
(0.541661 -0.0172733 7.704e-17)
(0.532877 -0.023529 6.1427e-17)
(0.528124 -0.0205947 7.56307e-17)
(0.52163 -0.0218982 6.26769e-17)
(0.516513 -0.0208031 7.44009e-17)
(0.511379 -0.020052 6.37355e-17)
(0.506162 -0.0188392 7.3507e-17)
(0.503265 -0.0178439 6.4502e-17)
(0.497319 -0.0167762 7.28714e-17)
(0.495579 -0.0157982 6.51647e-17)
(0.489341 -0.0148304 7.23237e-17)
(0.487931 -0.0140065 6.56925e-17)
(0.481247 -0.0125214 7.19916e-17)
(0.480442 -0.0113316 6.61361e-17)
(0.474086 -0.0100609 7.17256e-17)
(0.472944 -0.00896362 6.6581e-17)
(0.466836 -0.00716655 7.14706e-17)
(0.466438 -0.00628562 6.70542e-17)
(0.459679 -0.00499347 7.12271e-17)
(0.457668 -0.00357537 6.75538e-17)
(0.453193 -0.000521349 7.09927e-17)
(0.454515 0.000734346 6.80947e-17)
(0.44935 0.00160782 7.08779e-17)
(0.448257 0.00200497 6.86384e-17)
(0.44254 0.00329121 7.07383e-17)
(0.440781 0.00549378 6.91355e-17)
(0.436526 0.00735051 7.07101e-17)
(0.435742 0.0084092 6.96024e-17)
(0.431644 0.010621 7.08825e-17)
(0.431265 0.012869 6.99814e-17)
(0.42831 0.0143356 7.11479e-17)
(0.427699 0.0160357 7.04868e-17)
(0.425435 0.018087 7.14913e-17)
(0.425937 0.0196934 7.09119e-17)
(0.42379 0.0210888 7.19675e-17)
(0.423737 0.0229798 7.15387e-17)
(0.422523 0.0245333 7.2109e-17)
(0.42217 0.0261622 7.18152e-17)
(0.421403 0.0279824 7.27687e-17)
(0.422139 0.0295193 7.21068e-17)
(0.421854 0.0310784 7.34568e-17)
(0.422807 0.0328344 7.30359e-17)
(0.423153 0.034393 7.37951e-17)
(0.424061 0.0361289 7.30911e-17)
(0.425026 0.0378342 7.48749e-17)
(0.426232 0.0392188 7.35322e-17)
(0.426977 0.0407105 7.51493e-17)
(0.428474 0.0423071 7.40752e-17)
(0.430169 0.0441082 7.53608e-17)
(0.432849 0.0460142 7.36069e-17)
(0.435448 0.0475816 7.4919e-17)
(0.437659 0.0492038 7.35603e-17)
(0.440562 0.0507813 7.43436e-17)
(0.443319 0.0522442 7.34117e-17)
(0.446458 0.0539652 7.37483e-17)
(0.449545 0.0559086 7.26955e-17)
(0.453933 0.0580629 7.28826e-17)
(0.458931 0.0597748 7.00358e-17)
(0.464316 0.0615245 7.21916e-17)
(0.470037 0.0633408 7.0695e-17)
(0.475744 0.0651212 7.23356e-17)
(0.482263 0.0668862 7.08918e-17)
(0.489199 0.0684062 7.16542e-17)
(0.49633 0.0701152 7.20572e-17)
(0.503431 0.0716892 7.26007e-17)
(0.511414 0.0733309 7.11316e-17)
(0.520254 0.0746879 7.46459e-17)
(0.528864 0.0760757 7.49862e-17)
(0.537405 0.0779846 7.23544e-17)
(0.553471 0.0816288 7.42264e-17)
(0.570881 0.0814048 7.50929e-17)
(0.57713 0.0782632 7.54869e-17)
(0.581547 0.0788143 7.83653e-17)
(0.594228 0.0817023 7.58716e-17)
(0.608465 0.0821873 7.83158e-17)
(0.623158 0.0823506 7.43152e-17)
(0.637791 0.0817572 7.85007e-17)
(0.652405 0.0809357 7.28076e-17)
(0.667037 0.0796767 7.67828e-17)
(0.684337 0.0790664 7.19e-17)
(0.700267 0.0761882 7.53261e-17)
(0.716566 0.0733318 7.11382e-17)
(0.731172 0.0694067 7.30744e-17)
(0.748359 0.0661562 7.05155e-17)
(0.762317 0.06032 7.12523e-17)
(0.776852 0.0550238 6.93836e-17)
(0.787703 0.0479677 7.06247e-17)
(0.800691 0.0422643 6.74825e-17)
(0.807485 0.0325441 6.86171e-17)
(0.818205 0.0268561 6.62242e-17)
(0.817754 0.0151172 6.65119e-17)
(0.817452 0.00955715 6.43934e-17)
(0.821421 -0.00016837 6.43659e-17)
(0.815719 -0.00713108 6.21624e-17)
(0.815742 -0.0125732 6.19931e-17)
(0.813922 -0.0212613 5.98194e-17)
(0.806501 -0.0263429 5.95626e-17)
(0.804852 -0.0323377 5.74303e-17)
(0.796489 -0.0367808 5.73936e-17)
(0.796401 -0.0411175 5.55608e-17)
(0.791117 -0.0462123 5.59796e-17)
(0.78688 -0.0507354 5.50742e-17)
(0.781048 -0.0546854 5.60963e-17)
(0.778586 -0.0580173 5.54967e-17)
(0.773679 -0.06187 5.72366e-17)
(0.771458 -0.0649477 5.66602e-17)
(0.768509 -0.069043 5.8219e-17)
(0.765737 -0.0729501 5.8138e-17)
(0.761186 -0.0766683 5.93959e-17)
(0.757893 -0.0797748 5.89435e-17)
(0.755004 -0.0831058 5.99072e-17)
(0.752402 -0.0863074 5.91587e-17)
(0.749298 -0.0901945 6.01381e-17)
(0.746946 -0.093997 5.91575e-17)
(0.742798 -0.0983635 6.04467e-17)
(0.738514 -0.102213 5.90318e-17)
(0.734079 -0.10614 6.02125e-17)
(0.73014 -0.110342 5.87215e-17)
(0.72543 -0.11454 5.94788e-17)
(0.720669 -0.118931 5.82215e-17)
(0.71483 -0.122872 5.82269e-17)
(0.708962 -0.127036 5.77836e-17)
(0.702338 -0.131484 5.74411e-17)
(0.695608 -0.135834 5.69913e-17)
(0.686842 -0.140133 5.75187e-17)
(0.678011 -0.14339 5.70186e-17)
(0.670122 -0.147175 5.73932e-17)
(0.661978 -0.151776 5.76886e-17)
(0.652003 -0.156604 5.83332e-17)
(0.640342 -0.160845 5.80608e-17)
(0.627382 -0.165447 5.84042e-17)
(0.612749 -0.169674 5.82445e-17)
(0.596319 -0.173554 5.88308e-17)
(0.579639 -0.176467 5.78948e-17)
(0.562201 -0.179866 5.96873e-17)
(0.541659 -0.182854 5.66688e-17)
(0.517359 -0.185488 5.93646e-17)
(0.490843 -0.186001 5.73815e-17)
(0.46135 -0.184516 5.95469e-17)
(0.430673 -0.183215 5.74699e-17)
(0.39593 -0.182136 5.82419e-17)
(0.356109 -0.17625 5.7221e-17)
(0.313453 -0.167656 5.65902e-17)
(0.264879 -0.151008 5.51971e-17)
(0.210747 -0.121345 5.51244e-17)
(0.153253 -0.0800467 5.15675e-17)
(0.108673 -0.0269626 5.35894e-17)
(0.0605642 0.0546865 3.12235e-17)
(0.058112 0.17552 6.6794e-17)
(0.0580522 0.307109 7.92824e-17)
(0.148116 0.421943 8.21558e-17)
(0.269917 0.572724 8.16428e-17)
(0.448185 0.645628 8.24959e-17)
(0.599804 0.679372 8.04281e-17)
(0.732197 0.659647 8.08536e-17)
(0.794993 0.647215 7.98249e-17)
(0.898413 0.651981 8.04779e-17)
(0.982899 0.625652 8.02264e-17)
(1.06504 0.601878 8.06047e-17)
(1.11388 0.566168 7.96363e-17)
(1.16052 0.534142 8.03022e-17)
(1.20471 0.50691 7.92665e-17)
(1.219 0.476777 7.9908e-17)
(1.24065 0.452034 7.85731e-17)
(1.24844 0.429829 7.87634e-17)
(1.26748 0.407557 7.68312e-17)
(1.26762 0.386981 7.64774e-17)
(1.26561 0.372 7.47406e-17)
(1.26655 0.354064 7.56793e-17)
(1.2636 0.336556 7.39466e-17)
(1.26204 0.322405 7.33759e-17)
(1.2571 0.309459 7.14875e-17)
(1.25484 0.297566 7.22921e-17)
(1.25013 0.283849 7.07997e-17)
(1.2459 0.2729 7.07216e-17)
(1.24047 0.261154 6.97725e-17)
(1.23582 0.250203 7.09618e-17)
(1.23059 0.239245 6.96269e-17)
(1.2263 0.229 6.96108e-17)
(1.2201 0.218431 6.82067e-17)
(1.21442 0.208511 6.87799e-17)
(1.20735 0.199635 6.78356e-17)
(1.20175 0.191176 6.84335e-17)
(1.196 0.182695 6.72603e-17)
(1.19182 0.175247 6.83515e-17)
(1.18674 0.166459 6.73308e-17)
(1.18246 0.157098 6.86039e-17)
(1.18359 0.149364 6.71071e-17)
(1.17802 0.142032 6.81666e-17)
(1.16925 0.134939 6.7379e-17)
(1.16299 0.129063 6.90771e-17)
(1.15347 0.123126 6.73127e-17)
(1.14743 0.117928 6.92747e-17)
(1.13729 0.112241 6.76273e-17)
(1.13083 0.107032 6.90629e-17)
(1.12022 0.101845 6.74158e-17)
(1.12053 0.0970892 6.89201e-17)
(1.11943 0.0893239 6.71955e-17)
(1.1203 0.083465 6.85189e-17)
(1.11655 0.0754814 6.73971e-17)
(1.12035 0.0701752 6.79384e-17)
(1.1086 0.0643293 6.73766e-17)
(1.10993 0.0599299 6.79203e-17)
(1.10043 0.0548297 6.68812e-17)
(1.10126 0.0509671 6.708e-17)
(1.0926 0.0456468 6.6071e-17)
(1.09325 0.0412216 6.53614e-17)
(1.08462 0.0355189 6.44893e-17)
(1.08759 0.0309092 6.37233e-17)
(1.08061 0.0246636 6.26924e-17)
(1.08329 0.0210358 6.18576e-17)
(1.07498 0.0150825 6.06506e-17)
(1.07785 0.0105384 5.98595e-17)
(1.07794 0.00225331 5.85875e-17)
(1.07281 0.00143215 5.78075e-17)
(1.06709 -0.00340862 5.69854e-17)
(1.08826 -0.0134601 5.65784e-17)
(1.0691 -0.0149144 5.59339e-17)
(1.08603 -0.0229861 5.61461e-17)
(1.07091 -0.0275202 5.5765e-17)
(1.06882 -0.0345847 5.61963e-17)
(1.01907 -0.0328596 5.61215e-17)
(0.889102 -0.0210898 5.64948e-17)
(0.622647 -0.0066825 5.66712e-17)
(0.43739 -0.0145959 5.68337e-17)
(0.417154 -0.0289059 5.97587e-17)
(0.427268 -0.032628 6.17358e-17)
(0.430095 -0.034023 6.3937e-17)
(0.434126 -0.0362869 6.52117e-17)
(0.436579 -0.0383132 6.65341e-17)
(0.439103 -0.0404129 6.83929e-17)
(0.438926 -0.0418644 7.03736e-17)
(0.439065 -0.0437269 7.06559e-17)
(0.435251 -0.0460091 7.21055e-17)
(0.424553 -0.0471788 7.25686e-17)
(0.41435 -0.0453423 7.21205e-17)
(0.415044 -0.0451975 7.29413e-17)
(0.413785 -0.0475834 7.26537e-17)
(0.4033 -0.0493323 7.28689e-17)
(0.389379 -0.0477331 7.20721e-17)
(0.383718 -0.046333 7.28896e-17)
(0.380141 -0.046913 6.96702e-17)
(0.372424 -0.048045 6.88621e-17)
(0.360791 -0.0477479 6.84755e-17)
(0.350404 -0.0468501 6.76467e-17)
(0.340765 -0.0461802 6.77972e-17)
(0.330615 -0.0454752 6.52386e-17)
(0.32034 -0.0447473 6.44921e-17)
(0.309619 -0.0438424 6.50368e-17)
(0.29905 -0.0429152 6.41731e-17)
(0.287976 -0.0418467 6.27742e-17)
(0.277438 -0.0406421 6.35558e-17)
(0.267228 -0.0394615 6.22444e-17)
(0.257409 -0.0383513 6.1225e-17)
(0.247629 -0.0372356 6.03059e-17)
(0.238113 -0.036124 6.08334e-17)
(0.228724 -0.0349519 6.01844e-17)
(0.219579 -0.0338077 6.01491e-17)
(0.210622 -0.0326261 6.00782e-17)
(0.20183 -0.0314429 6.07498e-17)
(0.193439 -0.0302628 6.0208e-17)
(0.18499 -0.0290895 5.99694e-17)
(0.177149 -0.0279496 5.89632e-17)
(0.169044 -0.0268189 5.77243e-17)
(0.161757 -0.0257175 5.77591e-17)
(0.15403 -0.0245838 5.64791e-17)
(0.147557 -0.0235556 5.7158e-17)
(0.140284 -0.0224936 5.59274e-17)
(0.134474 -0.0216051 5.56707e-17)
(0.127219 -0.0205629 5.44905e-17)
(0.121807 -0.0196586 5.39249e-17)
(0.114782 -0.0185347 5.41535e-17)
(0.110299 -0.0177212 5.30966e-17)
(0.103695 -0.0166623 5.24011e-17)
(0.100014 -0.015977 5.12706e-17)
(0.0936232 -0.0149648 5.19151e-17)
(0.0905325 -0.0143744 5.04141e-17)
(0.0841419 -0.0133384 5.10837e-17)
(0.0817402 -0.0128234 4.92712e-17)
(0.0756461 -0.011826 4.93709e-17)
(0.0740614 -0.0114636 4.80179e-17)
(0.0679692 -0.0104908 4.74749e-17)
(0.0669449 -0.0102225 4.62972e-17)
(0.0609445 -0.00930741 4.68796e-17)
(0.0603765 -0.00917603 4.49791e-17)
(0.0541981 -0.00820411 4.49574e-17)
(0.0546748 -0.00823677 4.40669e-17)
(0.0487423 -0.00737411 4.32111e-17)
(0.0497273 -0.00750026 4.32372e-17)
(0.0440358 -0.00690639 4.22534e-17)
(0.0457691 -0.00719279 4.23618e-17)
(0.0400018 -0.00683478 4.22654e-17)
(0.0428036 -0.00750504 4.18271e-17)
(0.0372872 -0.00718235 4.11071e-17)
(0.040974 -0.00869434 4.11758e-17)
(0.0366108 -0.00867918 4.11102e-17)
(0.0411603 -0.0102678 4.13074e-17)
(0.0359877 -0.0128838 4.12541e-17)
(0.0420294 -0.0139026 4.13101e-17)
(0.0357429 -0.0225468 4.1913e-17)
(0.0462882 -0.0319364 4.26218e-17)
(0.0205377 -0.048036 4.18971e-17)
(0.0281324 -0.0298537 3.87369e-17)
(0.0625272 -0.0245603 5.77893e-17)
(0.113368 -0.0114916 1.97588e-17)
(0.199025 0.000550644 7.91135e-17)
(0.289792 0.00821854 2.63973e-17)
(0.407102 0.0138608 8.20645e-17)
(0.510412 0.0118094 4.88495e-17)
(0.578545 0.0104916 8.87737e-17)
(0.619111 0.00929376 6.47458e-17)
(0.644254 0.00923022 9.89721e-17)
(0.694889 0.00932072 7.72762e-17)
(0.749037 0.00897305 1.12297e-16)
(0.779474 0.00925156 9.19078e-17)
(0.788361 0.0099971 1.15417e-16)
(0.798389 0.00916297 1.005e-16)
(0.803377 0.0141613 1.12671e-16)
(0.812468 0.0113055 8.78028e-17)
(0.820919 0.0163489 4.53734e-17)
(0.830891 0.0150956 4.48573e-16)
(0.840369 0.0233173 -1.83626e-16)
(0.850203 0.0204831 2.74671e-16)
(0.858104 0.0300472 -1.57059e-17)
(0.858316 0.0275661 -2.38228e-16)
(0.868139 0.0331786 -2.71411e-16)
(0.864536 0.0355069 -1.3259e-16)
(0.863017 0.0397022 7.31684e-17)
(0.858847 0.040792 -1.13097e-16)
(0.857209 0.0299243 2.90345e-16)
(0.865822 0.0424756 -1.05819e-16)
(0.857058 0.0304899 1.83851e-16)
(0.863782 0.0334922 -5.62096e-17)
(0.872438 0.03357 -9.96876e-17)
(0.872423 0.033791 -9.08652e-17)
(0.863757 0.0333395 -6.84546e-17)
(0.857052 0.0305051 1.76448e-16)
(0.865854 0.0425014 -2.51835e-16)
(0.85746 0.0301347 1.82298e-16)
(0.858961 0.0408246 -7.07608e-16)
(0.863157 0.0397612 1.31298e-16)
(0.864478 0.035491 -2.54053e-16)
(0.867693 0.0333417 -9.89007e-17)
(0.858419 0.027607 -1.59703e-16)
(0.858189 0.0300137 -1.27497e-16)
(0.850576 0.02057 2.02962e-16)
(0.842412 0.0230865 3.95636e-17)
(0.833078 0.0148903 3.76321e-16)
(0.820385 0.0169005 -5.45404e-18)
(0.812975 0.0112629 9.66929e-17)
(0.803029 0.0141346 1.20366e-16)
(0.798637 0.00880189 9.89061e-17)
(0.789613 0.0109994 1.08243e-16)
(0.784642 0.00934096 1.0149e-16)
(0.773343 0.00956728 1.12087e-16)
(0.749353 0.00964054 9.32608e-17)
(0.706218 0.00973084 1.07678e-16)
(0.676834 0.00823428 7.23981e-17)
(0.660416 0.00739901 1.08752e-16)
(0.636206 0.00437175 6.03223e-17)
(0.623098 0.00560794 1.03037e-16)
(0.615331 0.00271195 5.87307e-17)
(0.609823 0.00048331 9.85372e-17)
(0.595014 -0.00133858 5.83657e-17)
(0.594941 -0.00542105 9.18728e-17)
(0.57718 -0.00981475 6.17023e-17)
(0.582822 -0.0149631 8.6382e-17)
(0.57564 -0.0179889 6.49701e-17)
(0.569543 -0.0180071 8.2942e-17)
(0.566937 -0.0212847 6.75116e-17)
(0.55843 -0.01847 8.05913e-17)
(0.557149 -0.0214196 6.92981e-17)
(0.548581 -0.0181105 7.89478e-17)
(0.547224 -0.0199559 7.05307e-17)
(0.539637 -0.0168174 7.78514e-17)
(0.538687 -0.0178478 7.14165e-17)
(0.531859 -0.0153015 7.71426e-17)
(0.530686 -0.0156803 7.20502e-17)
(0.524547 -0.0136255 7.66427e-17)
(0.522945 -0.013569 7.25722e-17)
(0.517076 -0.0115421 7.63097e-17)
(0.515437 -0.0108915 7.29402e-17)
(0.510201 -0.00924411 7.6106e-17)
(0.508196 -0.00832437 7.32691e-17)
(0.503124 -0.00637909 7.59821e-17)
(0.501769 -0.00561441 7.35737e-17)
(0.496226 -0.00386315 7.58856e-17)
(0.493449 -0.00257605 7.38681e-17)
(0.489909 3.06938e-05 7.58455e-17)
(0.490079 0.00121342 7.42362e-17)
(0.485856 0.00238023 7.58996e-17)
(0.48414 0.00312414 7.46083e-17)
(0.479519 0.00458775 7.59193e-17)
(0.477246 0.00667263 7.49596e-17)
(0.473591 0.00843763 7.599e-17)
(0.47247 0.00984787 7.53976e-17)
(0.469138 0.0120251 7.61644e-17)
(0.468322 0.0142576 7.57332e-17)
(0.465858 0.0159334 7.64627e-17)
(0.465119 0.0177136 7.61325e-17)
(0.46326 0.0198312 7.68696e-17)
(0.46356 0.0215083 7.65829e-17)
(0.461847 0.0230839 7.71832e-17)
(0.461766 0.0251084 7.70396e-17)
(0.460853 0.0268456 7.75791e-17)
(0.460632 0.028643 7.75143e-17)
(0.46018 0.0304943 7.80372e-17)
(0.461024 0.0321856 7.78908e-17)
(0.461132 0.0338891 7.89371e-17)
(0.462225 0.035793 7.85225e-17)
(0.462887 0.0375289 7.93454e-17)
(0.463997 0.0393901 7.90062e-17)
(0.465251 0.0412607 7.96665e-17)
(0.466754 0.0428019 7.90483e-17)
(0.467964 0.0444647 8.00476e-17)
(0.46987 0.0461995 7.92228e-17)
(0.471985 0.0481546 8.018e-17)
(0.47497 0.050213 7.87534e-17)
(0.47794 0.0519755 7.96522e-17)
(0.480671 0.0537657 7.84494e-17)
(0.48413 0.055508 7.97562e-17)
(0.487503 0.0571432 7.84121e-17)
(0.491181 0.0590513 7.85533e-17)
(0.494842 0.0611719 7.76719e-17)
(0.499856 0.0634911 7.73981e-17)
(0.505572 0.0653676 7.80367e-17)
(0.511635 0.0673396 7.78807e-17)
(0.517941 0.0693473 7.69695e-17)
(0.524403 0.0713217 7.6983e-17)
(0.531774 0.0732228 7.7209e-17)
(0.539523 0.0749082 7.70213e-17)
(0.547394 0.0767809 7.88899e-17)
(0.555385 0.0784965 7.78939e-17)
(0.564383 0.0802896 7.81169e-17)
(0.574082 0.0817926 7.94914e-17)
(0.583596 0.0833862 7.99008e-17)
(0.593276 0.085361 8.24658e-17)
(0.609851 0.0888615 8.31834e-17)
(0.627389 0.0886466 8.36271e-17)
(0.634983 0.0857962 8.45529e-17)
(0.641007 0.0863472 8.40533e-17)
(0.654424 0.0891661 8.42517e-17)
(0.669394 0.0896053 8.25777e-17)
(0.684906 0.0896903 8.12437e-17)
(0.700141 0.088948 8.29009e-17)
(0.715489 0.0879634 7.95432e-17)
(0.730689 0.0864335 8.09472e-17)
(0.748257 0.0855047 7.85333e-17)
(0.76433 0.0823446 7.85648e-17)
(0.780763 0.0790362 7.73125e-17)
(0.795343 0.0746097 7.80482e-17)
(0.812233 0.0710318 7.56962e-17)
(0.825766 0.0643972 7.75548e-17)
(0.839876 0.0587883 7.44294e-17)
(0.850151 0.0506931 7.56865e-17)
(0.862308 0.0447471 7.33318e-17)
(0.868394 0.0342653 7.39093e-17)
(0.878268 0.0267778 7.16304e-17)
(0.876988 0.0150701 7.1604e-17)
(0.876575 0.00852057 6.93396e-17)
(0.879287 -0.00112715 6.90948e-17)
(0.873571 -0.00938394 6.67295e-17)
(0.872646 -0.0138457 6.64028e-17)
(0.870147 -0.0239468 6.43356e-17)
(0.862577 -0.0282288 6.43387e-17)
(0.86009 -0.0361468 6.19978e-17)
(0.851485 -0.039606 6.20995e-17)
(0.850392 -0.0462751 6.06414e-17)
(0.844479 -0.0497862 6.09929e-17)
(0.839701 -0.0560548 6.03227e-17)
(0.83326 -0.0591762 6.13537e-17)
(0.829946 -0.0637228 6.09417e-17)
(0.824267 -0.0666851 6.22774e-17)
(0.821226 -0.0706243 6.24e-17)
(0.81725 -0.0742012 6.35233e-17)
(0.813655 -0.0787804 6.33556e-17)
(0.808128 -0.082163 6.54582e-17)