/*--------------------------------*- C++ -*----------------------------------*\
| =========                 |                                                 |
| \\      /  F ield         | OpenFOAM: The Open Source CFD Toolbox           |
|  \\    /   O peration     | Version:  v2006                                 |
|   \\  /    A nd           | Website:  www.openfoam.com                      |
|    \\/     M anipulation  |                                                 |
\*---------------------------------------------------------------------------*/
FoamFile
{
    version     2.0;
    format      ascii;
    class       volScalarField;
    location    "40";
    object      alphat;
}
// * * * * * * * * * * * * * * * * * * * * * * * * * * * * * * * * * * * * * //

dimensions      [1 -1 -1 0 0 0 0];


internalField   nonuniform List<scalar> 
93840
(
2.81138e-08
2.81739e-08
2.79521e-08
2.80276e-08
2.78804e-08
2.80297e-08
2.79407e-08
2.82397e-08
2.81103e-08
2.8039e-08
2.8367e-08
2.8496e-08
2.89489e-08
2.95263e-08
3.04767e-08
3.13462e-08
3.04221e-08
3.19325e-08
2.05254e-08
6.37653e-12
4.85423e-09
2.70217e-07
5.08227e-06
1.80688e-05
2.66212e-05
8.46587e-06
3.44171e-06
1.59629e-05
8.57292e-06
1.39964e-05
1.31547e-05
1.20348e-05
1.33799e-05
1.17537e-05
1.29176e-05
1.20334e-05
1.25234e-05
1.22166e-05
1.22411e-05
1.23467e-05
1.21292e-05
1.24042e-05
1.21496e-05
1.24378e-05
1.22218e-05
1.24473e-05
1.22837e-05
1.24372e-05
1.23128e-05
1.23604e-05
1.22722e-05
1.22527e-05
1.21277e-05
1.20386e-05
1.19171e-05
1.1813e-05
1.16269e-05
1.14522e-05
1.11781e-05
1.09527e-05
1.06786e-05
1.04233e-05
1.01823e-05
1.00922e-05
1.00186e-05
1.01671e-05
1.03923e-05
1.06782e-05
1.09219e-05
1.12051e-05
1.14825e-05
1.16655e-05
1.17482e-05
1.17259e-05
1.15947e-05
1.13478e-05
1.09857e-05
1.04672e-05
9.95935e-06
9.73844e-06
9.71292e-06
9.40885e-06
9.48962e-06
1.0922e-05
1.18025e-05
1.08955e-05
1.02949e-05
1.15404e-05
1.24253e-05
1.17934e-05
1.16148e-05
1.23994e-05
1.26795e-05
1.23112e-05
1.24579e-05
1.2942e-05
1.28146e-05
1.27739e-05
1.31078e-05
1.31517e-05
1.3121e-05
1.338e-05
1.34182e-05
1.36356e-05
1.38934e-05
1.39421e-05
1.39157e-05
1.41433e-05
1.42727e-05
1.44867e-05
1.46343e-05
1.48322e-05
1.49833e-05
1.52187e-05
1.54004e-05
1.56191e-05
1.57826e-05
1.60009e-05
1.61661e-05
1.6357e-05
1.65096e-05
1.66815e-05
1.67897e-05
1.69322e-05
1.69722e-05
1.7047e-05
1.71451e-05
1.71262e-05
1.72295e-05
1.72629e-05
1.72466e-05
1.73195e-05
1.73056e-05
1.73856e-05
1.73994e-05
1.74301e-05
1.74157e-05
1.74963e-05
1.74803e-05
1.7575e-05
1.75776e-05
1.76363e-05
1.76134e-05
1.76882e-05
1.76859e-05
1.77434e-05
1.7765e-05
1.7813e-05
1.78173e-05
1.78279e-05
1.7832e-05
1.78427e-05
1.78255e-05
1.78269e-05
1.77883e-05
1.77621e-05
1.76943e-05
1.76401e-05
1.75311e-05
1.74567e-05
1.73668e-05
1.72582e-05
1.70967e-05
1.69452e-05
1.67515e-05
1.65361e-05
1.62257e-05
1.58895e-05
1.54727e-05
1.49377e-05
1.41136e-05
1.24074e-05
8.3575e-06
1.99418e-06
2.12356e-06
8.76462e-06
4.27419e-06
2.50742e-08
1.04991e-07
1.11249e-06
1.48193e-07
1.60325e-07
8.65538e-10
2.47075e-07
4.3024e-07
2.45952e-07
9.93437e-09
2.62398e-06
5.06005e-06
5.03295e-08
3.16568e-06
1.33636e-05
1.38114e-05
1.0608e-05
1.24537e-05
1.5879e-05
1.76892e-05
1.85236e-05
1.85591e-05
1.86389e-05
1.86108e-05
1.85433e-05
1.84417e-05
1.83524e-05
1.8237e-05
1.81672e-05
1.80488e-05
1.79617e-05
1.78334e-05
1.77294e-05
1.75788e-05
1.74838e-05
1.73345e-05
1.72435e-05
1.70999e-05
1.7003e-05
1.68335e-05
1.67531e-05
1.6595e-05
1.65102e-05
1.63288e-05
1.62414e-05
1.60968e-05
1.60259e-05
1.58597e-05
1.5777e-05
1.56122e-05
1.55627e-05
1.53983e-05
1.53377e-05
1.51764e-05
1.51365e-05
1.49823e-05
1.49443e-05
1.47967e-05
1.47636e-05
1.45992e-05
1.45786e-05
1.44229e-05
1.43984e-05
1.42515e-05
1.42503e-05
1.40918e-05
1.40823e-05
1.39601e-05
1.39365e-05
1.37997e-05
1.37823e-05
1.36987e-05
1.36324e-05
1.37112e-05
1.314e-05
1.12011e-05
1.013e-05
1.02623e-05
1.05243e-05
1.06792e-05
1.08002e-05
1.08291e-05
1.0853e-05
1.08358e-05
1.07875e-05
1.07212e-05
1.06148e-05
1.0515e-05
1.03703e-05
1.0262e-05
1.01023e-05
9.82842e-06
9.58097e-06
9.48591e-06
9.41913e-06
9.16136e-06
8.85415e-06
8.74874e-06
8.61203e-06
8.45508e-06
8.22947e-06
8.03087e-06
7.78225e-06
7.64727e-06
7.42331e-06
7.17216e-06
6.96348e-06
6.8028e-06
6.51498e-06
6.27718e-06
6.1344e-06
5.93454e-06
5.61489e-06
5.45966e-06
5.28637e-06
5.01773e-06
4.77483e-06
4.58305e-06
4.32123e-06
4.07105e-06
3.77928e-06
3.49072e-06
3.30272e-06
3.14894e-06
3.00137e-06
2.82162e-06
2.62779e-06
2.42941e-06
2.32362e-06
2.28318e-06
2.26421e-06
2.22988e-06
2.16535e-06
2.04377e-06
1.86411e-06
1.55416e-06
1.16783e-06
9.06611e-07
7.37756e-07
5.82863e-07
5.34723e-07
5.25298e-07
5.62695e-07
5.68122e-07
6.62921e-07
8.99263e-07
1.02105e-06
8.43779e-07
6.4943e-07
9.85865e-07
1.73386e-06
2.23315e-06
2.61256e-06
2.83088e-06
3.1522e-06
3.36292e-06
3.74114e-06
4.38578e-06
4.65205e-06
8.91863e-06
1.90066e-05
2.33523e-05
2.64204e-05
2.98138e-05
5.36719e-06
1.2442e-05
3.79023e-05
2.72124e-05
8.73836e-06
1.23352e-06
2.7608e-07
8.62166e-08
3.33524e-08
3.17759e-08
2.61469e-08
2.73424e-08
2.95589e-08
2.94702e-08
2.91202e-08
2.86278e-08
2.84773e-08
2.80463e-08
2.81465e-08
2.82317e-08
2.80178e-08
2.8045e-08
2.79156e-08
2.79793e-08
2.80061e-08
2.81606e-08
2.80978e-08
2.81079e-08
2.81621e-08
2.79926e-08
2.79794e-08
2.79266e-08
2.80253e-08
2.80114e-08
2.82523e-08
2.81381e-08
2.80488e-08
2.8507e-08
2.86543e-08
2.91012e-08
2.94359e-08
3.01409e-08
3.13591e-08
3.21641e-08
2.52756e-08
2.65052e-08
3.79906e-08
4.06685e-08
2.93472e-07
1.97526e-06
8.43357e-06
1.52178e-05
6.81404e-06
4.97848e-06
1.34133e-05
1.02986e-05
1.19431e-05
1.18619e-05
1.18237e-05
1.21327e-05
1.18544e-05
1.30087e-05
1.22663e-05
1.37935e-05
1.30123e-05
1.46511e-05
1.40351e-05
1.55186e-05
1.52696e-05
1.65153e-05
1.64291e-05
1.75927e-05
1.73375e-05
1.84802e-05
1.79534e-05
1.90068e-05
1.82481e-05
1.91486e-05
1.8233e-05
1.88456e-05
1.78013e-05
1.79207e-05
1.67108e-05
1.64817e-05
1.51381e-05
1.43681e-05
1.2806e-05
1.17685e-05
1.0377e-05
9.83499e-06
9.67909e-06
1.06953e-05
1.24733e-05
1.44899e-05
1.61065e-05
1.76261e-05
1.89519e-05
2.02061e-05
2.08054e-05
2.11102e-05
2.09636e-05
2.05967e-05
1.97863e-05
1.87755e-05
1.76092e-05
1.68586e-05
1.6686e-05
1.58654e-05
1.38903e-05
1.46663e-05
1.95772e-05
2.03586e-05
1.58623e-05
1.42769e-05
2.03982e-05
2.18004e-05
1.83486e-05
1.76335e-05
2.13645e-05
2.16495e-05
1.9196e-05
1.97897e-05
2.1847e-05
2.04355e-05
1.96376e-05
2.11089e-05
2.05848e-05
1.9658e-05
2.06067e-05
2.00904e-05
1.97471e-05
1.99404e-05
1.98979e-05
1.95293e-05
1.97123e-05
1.93238e-05
1.93106e-05
1.90845e-05
1.89475e-05
1.87232e-05
1.85591e-05
1.83897e-05
1.82989e-05
1.81236e-05
1.79747e-05
1.78117e-05
1.76372e-05
1.74882e-05
1.73051e-05
1.71492e-05
1.69937e-05
1.68483e-05
1.68202e-05
1.66238e-05
1.66232e-05
1.64902e-05
1.63938e-05
1.63422e-05
1.62761e-05
1.62142e-05
1.61443e-05
1.60577e-05
1.59864e-05
1.58968e-05
1.58378e-05
1.57299e-05
1.56506e-05
1.55161e-05
1.54345e-05
1.53033e-05
1.52337e-05
1.5077e-05
1.49712e-05
1.48165e-05
1.46791e-05
1.45194e-05
1.43695e-05
1.41834e-05
1.40051e-05
1.37836e-05
1.35701e-05
1.32914e-05
1.30069e-05
1.26396e-05
1.22637e-05
1.18091e-05
1.13231e-05
1.06624e-05
9.84199e-06
8.90118e-06
8.1014e-06
7.49468e-06
6.8467e-06
5.54755e-06
3.71502e-06
2.44269e-06
2.68824e-06
3.04712e-06
1.9616e-06
6.38612e-08
1.41958e-13
5.42644e-08
2.87014e-10
2.23565e-09
2.77199e-08
3.34356e-08
2.44758e-08
2.1228e-08
4.07387e-08
9.3011e-08
1.63969e-07
2.813e-08
3.28157e-08
3.95044e-09
5.81875e-08
7.62276e-08
2.85957e-12
4.80586e-07
1.42065e-06
1.9172e-06
5.74352e-07
3.20951e-07
2.29041e-06
4.09151e-06
4.76904e-06
4.99821e-06
5.83827e-06
6.97467e-06
8.09199e-06
8.97522e-06
9.7731e-06
1.04321e-05
1.10227e-05
1.14728e-05
1.18951e-05
1.22447e-05
1.25521e-05
1.27487e-05
1.2947e-05
1.30438e-05
1.31667e-05
1.32399e-05
1.33474e-05
1.33844e-05
1.34645e-05
1.3485e-05
1.35352e-05
1.34834e-05
1.3523e-05
1.35468e-05
1.36286e-05
1.36679e-05
1.37333e-05
1.37399e-05
1.38169e-05
1.38188e-05
1.3903e-05
1.384e-05
1.38206e-05
1.37571e-05
1.37624e-05
1.37688e-05
1.38457e-05
1.38388e-05
1.39471e-05
1.3893e-05
1.3989e-05
1.3912e-05
1.39969e-05
1.39054e-05
1.40278e-05
1.39319e-05
1.40935e-05
1.3943e-05
1.41424e-05
1.4035e-05
1.4488e-05
1.47112e-05
1.51495e-05
1.68513e-05
1.76891e-05
1.77703e-05
1.76477e-05
1.74251e-05
1.73862e-05
1.72327e-05
1.7269e-05
1.71992e-05
1.72113e-05
1.72399e-05
1.71985e-05
1.72881e-05
1.72209e-05
1.72859e-05
1.72333e-05
1.71983e-05
1.73249e-05
1.71427e-05
1.72246e-05
1.70371e-05
1.70797e-05
1.73726e-05
1.72352e-05
1.72536e-05
1.73945e-05
1.74398e-05
1.71609e-05
1.75392e-05
1.74572e-05
1.71256e-05
1.71591e-05
1.74724e-05
1.69981e-05
1.66847e-05
1.70888e-05
1.70883e-05
1.62752e-05
1.64508e-05
1.66618e-05
1.62195e-05
1.58276e-05
1.58015e-05
1.54373e-05
1.50568e-05
1.45538e-05
1.392e-05
1.36028e-05
1.3785e-05
1.40313e-05
1.41085e-05
1.3915e-05
1.35577e-05
1.32467e-05
1.30233e-05
1.29131e-05
1.27943e-05
1.26687e-05
1.24267e-05
1.21386e-05
1.16018e-05
1.04913e-05
8.88217e-06
7.38244e-06
5.9396e-06
4.93526e-06
4.39141e-06
4.3796e-06
4.74002e-06
5.53041e-06
6.88933e-06
7.91282e-06
7.97307e-06
7.78557e-06
8.20227e-06
1.01891e-05
1.21543e-05
1.3851e-05
1.50524e-05
1.62801e-05
1.72465e-05
1.83221e-05
1.97211e-05
2.17097e-05
2.89949e-05
3.55261e-05
4.20206e-05
4.32971e-05
3.11803e-05
8.78817e-06
2.85076e-05
5.4202e-05
3.81849e-05
1.33829e-05
3.63359e-06
7.63206e-07
2.56984e-07
3.39633e-08
3.21061e-08
4.18002e-08
3.30037e-08
3.00301e-08
2.94075e-08
2.89734e-08
2.85723e-08
2.84272e-08
2.80219e-08
2.81184e-08
2.82572e-08
2.79526e-08
2.80336e-08
2.78786e-08
2.8024e-08
2.79669e-08
2.81757e-08
2.81095e-08
2.81171e-08
2.81768e-08
2.79709e-08
2.80199e-08
2.78723e-08
2.80262e-08
2.79658e-08
2.82422e-08
2.80919e-08
2.80251e-08
2.8393e-08
2.85413e-08
2.89296e-08
2.94447e-08
2.97004e-08
3.0154e-08
3.597e-08
3.8497e-08
3.62957e-08
1.10162e-07
1.68386e-07
7.28814e-08
8.98284e-11
8.5273e-07
4.66613e-06
4.19461e-06
6.54779e-06
1.23529e-05
1.19927e-05
1.43432e-05
1.42427e-05
1.52391e-05
1.55143e-05
1.62629e-05
1.72019e-05
1.78035e-05
1.91934e-05
1.98097e-05
2.14517e-05
2.23084e-05
2.38952e-05
2.51034e-05
2.6505e-05
2.78066e-05
2.90451e-05
3.00388e-05
3.10695e-05
3.14906e-05
3.21498e-05
3.19417e-05
3.21073e-05
3.11645e-05
3.05874e-05
2.8907e-05
2.73711e-05
2.48209e-05
2.2536e-05
1.93608e-05
1.64726e-05
1.33084e-05
1.07972e-05
8.80343e-06
8.60112e-06
1.01664e-05
1.37304e-05
1.77358e-05
2.12037e-05
2.4467e-05
2.82008e-05
3.2074e-05
3.55824e-05
3.71966e-05
3.7503e-05
3.63424e-05
3.4073e-05
3.07734e-05
2.7505e-05
2.54421e-05
2.56896e-05
2.6559e-05
2.43655e-05
2.0928e-05
2.4482e-05
3.34846e-05
3.24168e-05
2.26021e-05
2.34568e-05
3.63135e-05
3.70209e-05
2.7782e-05
2.81195e-05
3.68535e-05
3.62717e-05
2.94426e-05
3.17531e-05
3.64226e-05
3.18676e-05
3.00005e-05
3.35221e-05
3.14836e-05
2.9063e-05
3.1197e-05
2.94507e-05
2.85093e-05
2.87764e-05
2.8236e-05
2.7093e-05
2.72892e-05
2.60632e-05
2.57983e-05
2.49872e-05
2.44175e-05
2.36334e-05
2.29989e-05
2.23485e-05
2.19259e-05
2.13974e-05
2.09594e-05
2.04778e-05
2.00292e-05
1.96336e-05
1.9201e-05
1.88445e-05
1.84694e-05
1.81741e-05
1.7933e-05
1.7564e-05
1.74125e-05
1.70709e-05
1.68479e-05
1.66047e-05
1.64001e-05
1.61425e-05
1.59082e-05
1.56314e-05
1.53726e-05
1.50792e-05
1.48041e-05
1.44661e-05
1.41326e-05
1.37524e-05
1.34191e-05
1.30419e-05
1.27088e-05
1.22777e-05
1.18853e-05
1.14099e-05
1.09485e-05
1.0442e-05
9.90878e-06
9.29234e-06
8.65382e-06
7.93375e-06
7.1965e-06
6.37255e-06
5.55335e-06
4.72525e-06
4.02805e-06
3.35444e-06
2.745e-06
2.11347e-06
1.542e-06
8.3641e-07
3.42082e-07
2.64364e-07
3.60624e-07
9.89465e-08
9.54524e-09
3.05853e-08
4.83973e-08
3.28548e-09
1.13734e-08
7.36196e-08
7.46238e-08
4.511e-08
1.07226e-07
1.12718e-07
9.64395e-08
7.98867e-08
7.57339e-08
7.88322e-08
8.76576e-08
4.48828e-08
1.7768e-08
5.01476e-08
9.06714e-08
6.39305e-08
1.89803e-08
1.6209e-08
4.41747e-08
2.22255e-08
1.03757e-08
3.90747e-08
3.09839e-08
9.25404e-09
4.09219e-08
1.60411e-07
1.24064e-07
6.26192e-08
1.68895e-07
4.0949e-07
6.44516e-07
9.20443e-07
1.39498e-06
1.93945e-06
2.40901e-06
2.85016e-06
3.38594e-06
4.01684e-06
4.72203e-06
5.42725e-06
6.14976e-06
6.79972e-06
7.42109e-06
7.99374e-06
8.55098e-06
9.03685e-06
9.50079e-06
9.87278e-06
1.02492e-05
1.05248e-05
1.07992e-05
1.10992e-05
1.14253e-05
1.17471e-05
1.20485e-05
1.23176e-05
1.26156e-05
1.28587e-05
1.31538e-05
1.33052e-05
1.34564e-05
1.35649e-05
1.36996e-05
1.38735e-05
1.41084e-05
1.42907e-05
1.45753e-05
1.46953e-05
1.49303e-05
1.50001e-05
1.52375e-05
1.5283e-05
1.55039e-05
1.55881e-05
1.58518e-05
1.58759e-05
1.61052e-05
1.61553e-05
1.68056e-05
1.71252e-05
1.75366e-05
2.06483e-05
2.21507e-05
2.23991e-05
2.25291e-05
2.23508e-05
2.25609e-05
2.24119e-05
2.26777e-05
2.26964e-05
2.28772e-05
2.30832e-05
2.31682e-05
2.35272e-05
2.35638e-05
2.38569e-05
2.40092e-05
2.41201e-05
2.46389e-05
2.44757e-05
2.50841e-05
2.50286e-05
2.53573e-05
2.65323e-05
2.66046e-05
2.70499e-05
2.79366e-05
2.85823e-05
2.81182e-05
2.98845e-05
3.03084e-05
2.97101e-05
3.03127e-05
3.21759e-05
3.11648e-05
3.04735e-05
3.25032e-05
3.33813e-05
3.0953e-05
3.17926e-05
3.31755e-05
3.24396e-05
3.13054e-05
3.15244e-05
3.09598e-05
3.01254e-05
2.90001e-05
2.72523e-05
2.60729e-05
2.66838e-05
2.77561e-05
2.84272e-05
2.84766e-05
2.78941e-05
2.71116e-05
2.65178e-05
2.63089e-05
2.62364e-05
2.61885e-05
2.59082e-05
2.54741e-05
2.45865e-05
2.34481e-05
2.17848e-05
1.97385e-05
1.7255e-05
1.4841e-05
1.23343e-05
1.01937e-05
8.64115e-06
8.73263e-06
1.01507e-05
1.1951e-05
1.32225e-05
1.43146e-05
1.64302e-05
1.96933e-05
2.21861e-05
2.46272e-05
2.68915e-05
2.88945e-05
3.06679e-05
3.21808e-05
3.37041e-05
3.49264e-05
3.69288e-05
4.34046e-05
4.8852e-05
4.66977e-05
3.54535e-05
2.96752e-05
4.99358e-05
6.99002e-05
4.79372e-05
1.78322e-05
3.91589e-06
3.49424e-07
1.06321e-08
9.07398e-08
3.31651e-08
2.77956e-08
3.21175e-08
3.10246e-08
2.95213e-08
2.91323e-08
2.85835e-08
2.84682e-08
2.80485e-08
2.81327e-08
2.82429e-08
2.80088e-08
2.80256e-08
2.79203e-08
2.79746e-08
2.79893e-08
2.81597e-08
2.81036e-08
2.80881e-08
2.8145e-08
2.80099e-08
2.79677e-08
2.79324e-08
2.80369e-08
2.80114e-08
2.82355e-08
2.81318e-08
2.80218e-08
2.84929e-08
2.86681e-08
2.90849e-08
2.9469e-08
2.96155e-08
2.7351e-08
2.54161e-08
3.55089e-08
3.65351e-08
7.00189e-09
5.11293e-09
4.26966e-10
1.29542e-09
8.93511e-13
6.53019e-07
4.74306e-06
8.46599e-06
1.13824e-05
1.39873e-05
1.56109e-05
1.68433e-05
1.79141e-05
1.8992e-05
2.00449e-05
2.14076e-05
2.25552e-05
2.42578e-05
2.55385e-05
2.75038e-05
2.8982e-05
3.09537e-05
3.26671e-05
3.4416e-05
3.61282e-05
3.75791e-05
3.88616e-05
3.98995e-05
4.04076e-05
4.07725e-05
4.03848e-05
3.98208e-05
3.82935e-05
3.65525e-05
3.39181e-05
3.08347e-05
2.69718e-05
2.29288e-05
1.82947e-05
1.38452e-05
9.69047e-06
6.52295e-06
5.24961e-06
7.28125e-06
1.19811e-05
1.69522e-05
2.10614e-05
2.50832e-05
2.98599e-05
3.55467e-05
4.13275e-05
4.61168e-05
4.80595e-05
4.77337e-05
4.50951e-05
4.07818e-05
3.56875e-05
3.17221e-05
3.09148e-05
3.33077e-05
3.39264e-05
2.95052e-05
2.61584e-05
3.3345e-05
4.37131e-05
3.91404e-05
2.71468e-05
3.19157e-05
4.83707e-05
4.63014e-05
3.36429e-05
3.607e-05
4.77926e-05
4.52213e-05
3.56652e-05
3.98679e-05
4.56461e-05
3.83973e-05
3.62573e-05
4.10726e-05
3.7487e-05
3.42278e-05
3.71635e-05
3.43161e-05
3.299e-05
3.31868e-05
3.2097e-05
3.04555e-05
3.06212e-05
2.87014e-05
2.82416e-05
2.69528e-05
2.60723e-05
2.48915e-05
2.39425e-05
2.2943e-05
2.2296e-05
2.15352e-05
2.09576e-05
2.02418e-05
1.96771e-05
1.90978e-05
1.85404e-05
1.80312e-05
1.75065e-05
1.70809e-05
1.66581e-05
1.61799e-05
1.58334e-05
1.53783e-05
1.49745e-05
1.45734e-05
1.42273e-05
1.37705e-05
1.33949e-05
1.2918e-05
1.24918e-05
1.19936e-05
1.15288e-05
1.09493e-05
1.03737e-05
9.71209e-06
9.08431e-06
8.398e-06
7.74001e-06
6.97697e-06
6.23472e-06
5.41347e-06
4.66682e-06
3.98238e-06
3.34682e-06
2.67066e-06
2.05669e-06
1.50961e-06
1.06792e-06
6.33302e-07
3.41477e-07
1.45293e-07
1.1105e-07
6.95816e-08
5.26649e-08
3.07879e-08
3.36099e-08
2.61722e-08
2.89844e-08
2.24606e-08
3.71576e-08
2.70355e-08
3.67901e-08
3.69143e-08
4.15009e-08
5.40383e-08
6.69088e-08
3.57388e-08
5.59019e-08
5.56879e-08
3.76753e-08
2.61113e-08
3.58552e-08
3.11462e-08
5.2301e-08
5.80089e-08
5.39808e-08
6.60037e-08
1.28223e-07
4.12528e-08
2.60444e-08
2.65266e-08
3.39485e-08
1.93334e-08
1.63435e-08
1.25461e-08
1.0702e-08
9.77402e-09
6.32838e-09
4.00876e-09
4.35388e-09
5.66455e-09
5.06249e-09
5.04151e-09
6.75678e-09
9.06853e-09
1.07687e-08
1.15328e-08
1.31794e-08
2.25264e-08
2.71708e-08
3.6452e-08
6.52819e-08
1.38865e-07
2.7825e-07
5.29801e-07
8.6337e-07
1.27938e-06
1.688e-06
2.1601e-06
2.71365e-06
3.32423e-06
3.94798e-06
4.55414e-06
5.2067e-06
5.83846e-06
6.4382e-06
7.0635e-06
7.6799e-06
8.30457e-06
8.84809e-06
9.37723e-06
9.88326e-06
1.03493e-05
1.08391e-05
1.12144e-05
1.1542e-05
1.1844e-05
1.21342e-05
1.24838e-05
1.28562e-05
1.32203e-05
1.36315e-05
1.39198e-05
1.42757e-05
1.4492e-05
1.48095e-05
1.50486e-05
1.53367e-05
1.55976e-05
1.58917e-05
1.61764e-05
1.63439e-05
1.66763e-05
1.71988e-05
1.78364e-05
1.88089e-05
2.19129e-05
2.35285e-05
2.36539e-05
2.39748e-05
2.3858e-05
2.43056e-05
2.41904e-05
2.46397e-05
2.47434e-05
2.50518e-05
2.53655e-05
2.55666e-05
2.60771e-05
2.62378e-05
2.65789e-05
2.69538e-05
2.71364e-05
2.79225e-05
2.77137e-05
2.86886e-05
2.88787e-05
2.93185e-05
3.11046e-05
3.13837e-05
3.20226e-05
3.34444e-05
3.47648e-05
3.40246e-05
3.6656e-05
3.78511e-05
3.71586e-05
3.78112e-05
4.11662e-05
4.03343e-05
3.89464e-05
4.20961e-05
4.46035e-05
4.10836e-05
4.1901e-05
4.47612e-05
4.44578e-05
4.26274e-05
4.30032e-05
4.26236e-05
4.16202e-05
4.02493e-05
3.80998e-05
3.60217e-05
3.61522e-05
3.76347e-05
3.90742e-05
3.97531e-05
3.9375e-05
3.84119e-05
3.74342e-05
3.69335e-05
3.67983e-05
3.68497e-05
3.67217e-05
3.63853e-05
3.55626e-05
3.44475e-05
3.29425e-05
3.1124e-05
2.8807e-05
2.63498e-05
2.35965e-05
2.0964e-05
1.79642e-05
1.5406e-05
1.45512e-05
1.564e-05
1.72774e-05
1.90919e-05
2.17363e-05
2.55574e-05
2.95946e-05
3.32516e-05
3.60383e-05
3.85371e-05
4.0812e-05
4.27808e-05
4.44287e-05
4.56103e-05
4.68781e-05
4.86102e-05
5.20166e-05
4.93398e-05
4.35656e-05
4.35823e-05
6.19566e-05
7.92327e-05
5.46774e-05
2.10171e-05
5.1151e-06
3.56843e-08
4.09238e-10
1.80689e-08
4.54541e-08
2.6922e-08
2.64949e-08
2.94429e-08
2.94322e-08
2.89464e-08
2.86118e-08
2.84484e-08
2.80486e-08
2.81249e-08
2.82497e-08
2.79542e-08
2.80374e-08
2.78855e-08
2.80248e-08
2.79699e-08
2.8179e-08
2.81058e-08
2.81216e-08
2.81788e-08
2.7945e-08
2.80177e-08
2.78738e-08
2.80408e-08
2.79636e-08
2.82577e-08
2.80836e-08
2.80436e-08
2.84328e-08
2.85337e-08
2.8971e-08
2.94901e-08
3.04909e-08
3.10092e-08
2.68818e-08
2.24261e-08
3.67052e-08
2.97253e-08
3.39161e-08
2.46395e-07
4.06926e-07
3.98809e-07
1.56192e-06
4.49804e-06
8.79649e-06
1.14232e-05
1.5244e-05
1.72227e-05
1.90872e-05
2.08208e-05
2.2166e-05
2.39506e-05
2.53719e-05
2.72834e-05
2.89621e-05
3.09924e-05
3.29108e-05
3.49996e-05
3.70085e-05
3.90488e-05
4.08948e-05
4.27068e-05
4.41187e-05
4.53747e-05
4.61242e-05
4.64035e-05
4.62263e-05
4.53035e-05
4.38325e-05
4.14437e-05
3.84664e-05
3.4639e-05
3.00454e-05
2.48153e-05
1.91496e-05
1.32327e-05
7.68503e-06
3.39836e-06
1.64263e-06
4.65906e-06
1.01849e-05
1.51115e-05
1.83185e-05
2.20559e-05
2.7395e-05
3.38232e-05
4.13226e-05
4.83218e-05
5.3462e-05
5.50479e-05
5.3508e-05
4.91254e-05
4.29806e-05
3.69919e-05
3.40465e-05
3.62605e-05
4.02683e-05
3.8755e-05
3.24247e-05
3.10062e-05
4.20591e-05
5.14496e-05
4.28755e-05
3.08971e-05
4.02738e-05
5.80944e-05
5.233e-05
3.77162e-05
4.28298e-05
5.62967e-05
5.10357e-05
3.97154e-05
4.59617e-05
5.19143e-05
4.21103e-05
4.01921e-05
4.58603e-05
4.05748e-05
3.68364e-05
4.03654e-05
3.63635e-05
3.4744e-05
3.47879e-05
3.30942e-05
3.10856e-05
3.1166e-05
2.85997e-05
2.79882e-05
2.62766e-05
2.51806e-05
2.37103e-05
2.2569e-05
2.1317e-05
2.05038e-05
1.95537e-05
1.89402e-05
1.80432e-05
1.74246e-05
1.66994e-05
1.60455e-05
1.54087e-05
1.47447e-05
1.41977e-05
1.35735e-05
1.29864e-05
1.24094e-05
1.18568e-05
1.12216e-05
1.06859e-05
1.01471e-05
9.48312e-06
8.91866e-06
8.1694e-06
7.51367e-06
6.71842e-06
6.0136e-06
5.14223e-06
4.36059e-06
3.53059e-06
2.89596e-06
2.28105e-06
1.8393e-06
1.31732e-06
9.69852e-07
4.731e-07
2.98035e-07
1.90777e-07
1.25932e-07
5.53203e-08
6.55086e-08
3.97209e-08
4.99955e-08
2.83605e-08
4.49616e-08
2.09283e-08
4.66765e-08
2.27552e-08
4.66703e-08
3.01568e-08
5.01807e-08
3.60945e-08
5.55009e-08
3.91487e-08
5.7941e-08
4.22112e-08
5.25481e-08
3.87112e-08
4.61719e-08
3.68792e-08
4.33657e-08
4.16538e-08
4.21773e-08
3.70529e-08
6.09942e-08
7.25148e-08
7.59905e-08
7.75689e-08
6.11827e-08
4.66875e-08
7.2072e-08
3.84931e-08
2.72137e-08
6.57484e-08
5.9014e-08
3.16569e-08
3.25798e-08
3.01894e-08
3.28744e-08
2.47649e-08
2.31137e-08
2.19742e-08
2.2645e-08
2.25446e-08
1.92287e-08
1.73428e-08
1.54868e-08
1.39133e-08
1.27993e-08
1.08558e-08
1.03191e-08
1.11111e-08
1.0607e-08
1.42572e-08
1.23627e-08
1.39209e-08
1.23273e-08
1.40941e-08
1.2021e-08
1.79322e-08
1.74967e-08
2.84102e-08
3.30768e-08
5.77749e-08
5.80832e-08
1.67968e-07
2.96598e-07
4.48227e-07
7.1713e-07
1.2024e-06
1.54514e-06
2.06328e-06
2.61526e-06
3.34137e-06
3.97036e-06
4.70901e-06
5.43035e-06
6.16811e-06
6.90208e-06
7.54256e-06
8.09239e-06
8.62958e-06
9.0892e-06
9.6281e-06
1.01491e-05
1.07096e-05
1.12461e-05
1.17071e-05
1.21823e-05
1.25608e-05
1.29665e-05
1.3374e-05
1.37624e-05
1.42111e-05
1.45715e-05
1.50565e-05
1.52581e-05
1.57676e-05
1.62718e-05
1.70587e-05
1.85777e-05
2.15806e-05
2.30021e-05
2.28802e-05
2.33325e-05
2.32582e-05
2.39304e-05
2.38565e-05
2.44739e-05
2.46603e-05
2.50953e-05
2.5461e-05
2.58084e-05
2.63742e-05
2.67332e-05
2.69787e-05
2.76262e-05
2.78053e-05
2.88487e-05
2.85751e-05
2.98324e-05
3.03605e-05
3.08029e-05
3.30945e-05
3.36538e-05
3.43173e-05
3.61049e-05
3.82664e-05
3.72056e-05
4.03246e-05
4.25219e-05
4.19932e-05
4.22544e-05
4.69325e-05
4.70069e-05
4.47887e-05
4.82609e-05
5.28196e-05
4.912e-05
4.91452e-05
5.30965e-05
5.39773e-05
5.18554e-05
5.2071e-05
5.20654e-05
5.12636e-05
4.99467e-05
4.79173e-05
4.53597e-05
4.45901e-05
4.57445e-05
4.75334e-05
4.88476e-05
4.90391e-05
4.83193e-05
4.72116e-05
4.6363e-05
4.59454e-05
4.58937e-05
4.58629e-05
4.57062e-05
4.51409e-05
4.42631e-05
4.2994e-05
4.14337e-05
3.94047e-05
3.7177e-05
3.46197e-05
3.20835e-05
2.93112e-05
2.62832e-05
2.31035e-05
2.12941e-05
2.13066e-05
2.26566e-05
2.51569e-05
2.88651e-05
3.34344e-05
3.81514e-05
4.2525e-05
4.63029e-05
4.95804e-05
5.21093e-05
5.4016e-05
5.56124e-05
5.57002e-05
5.57628e-05
5.52942e-05
5.34593e-05
5.1001e-05
5.14218e-05
6.67482e-05
8.33261e-05
5.89182e-05
2.41783e-05
7.60255e-06
2.53628e-06
3.0866e-07
1.35052e-09
1.22223e-08
3.4175e-08
3.12307e-08
2.99005e-08
2.93785e-08
2.91958e-08
2.85466e-08
2.84731e-08
2.80358e-08
2.81199e-08
2.82449e-08
2.80095e-08
2.80148e-08
2.79269e-08
2.79773e-08
2.79849e-08
2.81603e-08
2.81e-08
2.80821e-08
2.81447e-08
2.80064e-08
2.79698e-08
2.79322e-08
2.8022e-08
2.79987e-08
2.82387e-08
2.8133e-08
2.80509e-08
2.85001e-08
2.86609e-08
2.90218e-08
2.95762e-08
3.02825e-08
3.28105e-08
3.73202e-08
2.97706e-08
2.61202e-08
6.80738e-08
6.61133e-08
5.71078e-08
7.93909e-08
4.49042e-07
5.78475e-07
2.1383e-06
6.03062e-06
1.14057e-05
1.4747e-05
1.802e-05
2.04152e-05
2.25754e-05
2.46826e-05
2.66456e-05
2.86724e-05
3.07413e-05
3.28105e-05
3.50051e-05
3.7139e-05
3.93497e-05
4.14363e-05
4.34748e-05
4.53069e-05
4.69236e-05
4.81584e-05
4.90829e-05
4.93742e-05
4.91729e-05
4.82709e-05
4.65957e-05
4.41228e-05
4.07076e-05
3.64787e-05
3.13908e-05
2.54357e-05
1.90142e-05
1.22598e-05
6.07212e-06
1.4589e-06
6.74642e-07
4.07321e-06
8.6202e-06
1.14681e-05
1.41157e-05
1.70642e-05
2.15281e-05
2.8708e-05
3.64988e-05
4.52592e-05
5.26343e-05
5.73234e-05
5.79409e-05
5.47723e-05
4.86395e-05
4.12835e-05
3.5798e-05
3.58855e-05
4.1689e-05
4.50567e-05
4.0435e-05
3.36303e-05
3.57631e-05
4.98205e-05
5.61727e-05
4.41883e-05
3.408e-05
4.78019e-05
6.50656e-05
5.55528e-05
4.02289e-05
4.81561e-05
6.22655e-05
5.40612e-05
4.1805e-05
5.00273e-05
5.54086e-05
4.33001e-05
4.1957e-05
4.80459e-05
4.10266e-05
3.71126e-05
4.10168e-05
3.58562e-05
3.40256e-05
3.38587e-05
3.1554e-05
2.92965e-05
2.92642e-05
2.61472e-05
2.54576e-05
2.342e-05
2.22346e-05
2.05965e-05
1.93861e-05
1.79691e-05
1.7017e-05
1.59667e-05
1.53404e-05
1.43531e-05
1.36865e-05
1.28547e-05
1.21121e-05
1.13726e-05
1.05365e-05
9.87564e-06
9.00048e-06
8.27549e-06
7.37126e-06
6.66787e-06
5.70911e-06
5.06138e-06
4.34022e-06
3.61023e-06
3.04108e-06
2.35584e-06
1.87653e-06
1.30745e-06
1.00718e-06
5.1088e-07
3.13205e-07
1.33585e-07
1.02284e-07
5.78441e-08
5.01194e-08
3.11319e-08
4.50626e-08
2.03383e-08
3.28224e-08
2.57674e-08
3.1154e-08
2.36342e-08
3.59362e-08
2.02974e-08
3.83756e-08
2.1741e-08
4.91463e-08
2.59193e-08
5.5924e-08
2.76945e-08
4.95184e-08
2.77534e-08
4.3086e-08
3.01197e-08
3.92369e-08
3.01256e-08
3.58043e-08
3.15462e-08
3.8102e-08
3.93419e-08
4.61838e-08
4.66804e-08
4.92807e-08
4.97677e-08
5.66516e-08
6.01175e-08
4.91186e-08
4.1077e-08
3.85252e-08
3.86418e-08
4.83171e-08
6.37109e-08
5.8441e-08
7.46616e-08
8.60543e-08
3.94568e-08
3.7671e-08
3.8569e-08
2.6334e-08
1.89751e-08
1.65086e-08
1.44327e-08
1.09541e-08
8.81505e-09
6.40538e-09
6.5059e-09
5.88863e-09
7.14626e-09
6.35753e-09
7.74044e-09
7.43361e-09
9.33488e-09
8.08512e-09
9.75486e-09
7.19877e-09
8.92169e-09
6.84476e-09
9.73448e-09
7.64375e-09
1.10876e-08
7.72245e-09
1.18038e-08
6.26022e-09
1.17884e-08
5.98102e-09
1.37948e-08
8.13982e-09
1.39757e-08
1.38809e-08
2.02002e-08
1.25904e-08
3.77933e-08
2.99995e-08
4.94146e-08
5.52951e-08
2.68456e-07
3.28648e-07
6.62992e-07
1.02394e-06
1.56319e-06
2.10609e-06
2.69358e-06
3.24547e-06
3.91525e-06
4.51052e-06
5.26249e-06
5.98304e-06
6.79758e-06
7.52359e-06
8.19503e-06
8.79461e-06
9.32571e-06
9.86503e-06
1.04236e-05
1.09329e-05
1.15311e-05
1.20627e-05
1.26676e-05
1.3012e-05
1.35627e-05
1.41956e-05
1.50046e-05
1.70881e-05
1.98838e-05
2.09447e-05
2.04649e-05
2.09877e-05
2.0905e-05
2.1778e-05
2.17393e-05
2.25e-05
2.2755e-05
2.33351e-05
2.36867e-05
2.42362e-05
2.47501e-05
2.53993e-05
2.54305e-05
2.63902e-05
2.64881e-05
2.78094e-05
2.74404e-05
2.89088e-05
2.98648e-05
3.02413e-05
3.28932e-05
3.38262e-05
3.44089e-05
3.62994e-05
3.94526e-05
3.81235e-05
4.13031e-05
4.46092e-05
4.46202e-05
4.41139e-05
4.97308e-05
5.13699e-05
4.85168e-05
5.14395e-05
5.80826e-05
5.52977e-05
5.40943e-05
5.8447e-05
6.09363e-05
5.9165e-05
5.90354e-05
5.93831e-05
5.90381e-05
5.80377e-05
5.64005e-05
5.39055e-05
5.23415e-05
5.27213e-05
5.43017e-05
5.59847e-05
5.67893e-05
5.65962e-05
5.5671e-05
5.46494e-05
5.38738e-05
5.35226e-05
5.33823e-05
5.32875e-05
5.29534e-05
5.23511e-05
5.13967e-05
5.01307e-05
4.84433e-05
4.64955e-05
4.42282e-05
4.18565e-05
3.92999e-05
3.66178e-05
3.35602e-05
3.03665e-05
2.77901e-05
2.67749e-05
2.76547e-05
3.03525e-05
3.45316e-05
3.93971e-05
4.45487e-05
4.93425e-05
5.37611e-05
5.72758e-05
6.02945e-05
6.23333e-05
6.32549e-05
6.28948e-05
6.0333e-05
5.68335e-05
5.59503e-05
5.55808e-05
6.56354e-05
8.18961e-05
6.08705e-05
2.79478e-05
9.45846e-06
3.95567e-06
1.42877e-06
3.17467e-07
2.76974e-08
2.6019e-08
3.12307e-08
3.05299e-08
2.9532e-08
2.89834e-08
2.86864e-08
2.84629e-08
2.80432e-08
2.81139e-08
2.82526e-08
2.79559e-08
2.80186e-08
2.78948e-08
2.80199e-08
2.79631e-08
2.81701e-08
2.81044e-08
2.81209e-08
2.82071e-08
2.79653e-08
2.80201e-08
2.78704e-08
2.80587e-08
2.79528e-08
2.82644e-08
2.80822e-08
2.80451e-08
2.84289e-08
2.8579e-08
2.89365e-08
2.93579e-08
2.96202e-08
3.00898e-08
3.47937e-08
3.41472e-08
1.59847e-08
1.16381e-08
1.43819e-08
1.5461e-09
9.39677e-09
8.27235e-09
3.88393e-07
1.9544e-06
5.51085e-06
9.90622e-06
1.38547e-05
1.75663e-05
2.03996e-05
2.31606e-05
2.55961e-05
2.80003e-05
3.03036e-05
3.26468e-05
3.48759e-05
3.72522e-05
3.93812e-05
4.16829e-05
4.36157e-05
4.56105e-05
4.71428e-05
4.85354e-05
4.93377e-05
4.98205e-05
4.94936e-05
4.8653e-05
4.69085e-05
4.43714e-05
4.08237e-05
3.63641e-05
3.09515e-05
2.47376e-05
1.77871e-05
1.08603e-05
4.49205e-06
4.11313e-07
1.00173e-06
2.52289e-06
4.99104e-06
6.61423e-06
8.89118e-06
1.11816e-05
1.46051e-05
2.07675e-05
2.88102e-05
3.77748e-05
4.67844e-05
5.3925e-05
5.76076e-05
5.67412e-05
5.17249e-05
4.40911e-05
3.65516e-05
3.34568e-05
3.82361e-05
4.60314e-05
4.6354e-05
3.91462e-05
3.37477e-05
4.04172e-05
5.56721e-05
5.77053e-05
4.35982e-05
3.66535e-05
5.3779e-05
6.91479e-05
5.63576e-05
4.12224e-05
5.17458e-05
6.56874e-05
5.45714e-05
4.19938e-05
5.19766e-05
5.62621e-05
4.21621e-05
4.15924e-05
4.77258e-05
3.90315e-05
3.51565e-05
3.92315e-05
3.29615e-05
3.09925e-05
3.05872e-05
2.77119e-05
2.53317e-05
2.51798e-05
2.16562e-05
2.09825e-05
1.87459e-05
1.76e-05
1.58959e-05
1.46962e-05
1.31575e-05
1.21277e-05
1.1039e-05
1.03503e-05
9.32547e-06
8.58435e-06
7.62205e-06
6.7378e-06
5.94398e-06
4.87381e-06
4.26052e-06
3.19327e-06
2.67237e-06
1.75315e-06
1.57695e-06
5.98887e-07
7.79466e-07
2.40932e-07
2.38426e-07
8.73032e-08
1.1419e-07
2.64574e-08
7.92529e-08
1.81749e-08
6.09771e-08
1.42839e-08
5.32432e-08
1.67472e-08
5.12005e-08
2.31492e-08
4.7538e-08
3.06064e-08
4.17661e-08
3.35866e-08
4.05181e-08
3.47504e-08
3.82728e-08
3.77764e-08
3.88732e-08
4.11418e-08
3.62993e-08
3.61389e-08
2.99236e-08
3.22816e-08
3.07343e-08
3.55521e-08
3.61602e-08
3.90533e-08
3.89149e-08
3.9633e-08
4.22813e-08
4.529e-08
4.85238e-08
4.44612e-08
4.21945e-08
3.87405e-08
4.0502e-08
4.02386e-08
4.21455e-08
3.9486e-08
3.96424e-08
4.56695e-08
5.63503e-08
6.71354e-08
6.84447e-08
6.84062e-08
5.13438e-08
5.62079e-08
3.22632e-08
4.4586e-08
5.40461e-08
4.57611e-08
3.79653e-08
3.94796e-08
3.52755e-08
3.09602e-08
2.82617e-08
2.65515e-08
2.68869e-08
2.38021e-08
2.06541e-08
1.64215e-08
1.59136e-08
1.32907e-08
1.32298e-08
1.0863e-08
1.17367e-08
1.04561e-08
1.28146e-08
1.1731e-08
1.37491e-08
1.12033e-08
1.31867e-08
1.03343e-08
1.29629e-08
1.00966e-08
1.49094e-08
1.05206e-08
1.59488e-08
1.02004e-08
1.38428e-08
8.83723e-09
1.19426e-08
7.7783e-09
1.17862e-08
5.49285e-09
1.46718e-08
5.84944e-09
2.20838e-08
3.07835e-09
3.78859e-08
6.20137e-09
2.62742e-08
2.03694e-08
3.52583e-08
6.72507e-08
1.35665e-07
1.47651e-07
4.65917e-07
5.86136e-07
1.05652e-06
1.46668e-06
2.17288e-06
2.83698e-06
3.54705e-06
4.21517e-06
4.83142e-06
5.51494e-06
6.26586e-06