/*--------------------------------*- C++ -*----------------------------------*\
| =========                 |                                                 |
| \\      /  F ield         | OpenFOAM: The Open Source CFD Toolbox           |
|  \\    /   O peration     | Version:  v2006                                 |
|   \\  /    A nd           | Website:  www.openfoam.com                      |
|    \\/     M anipulation  |                                                 |
\*---------------------------------------------------------------------------*/
FoamFile
{
    version     2.0;
    format      ascii;
    class       volScalarField;
    location    "40";
    object      ducSensor;
}
// * * * * * * * * * * * * * * * * * * * * * * * * * * * * * * * * * * * * * //

dimensions      [0 0 0 0 0 0 0];


internalField   nonuniform List<scalar> 
93840
(
0
0
0
0
0.0167904
0
0.0118284
0
0
0.0105885
0
0
0
0
0.0134343
0
0.0628138
0
0.0431801
0.0275622
0
0
0
0.00266034
0
0.0495848
0
0
0
0
0
0.0160799
0.00131204
0
0
0
0
0
0
0
0
0
0
0
0
0
0
0
0
0
0
0
0
0
0.000483832
0.000360401
0
0
0
0.000189162
0
0
0
0.000140557
0
0
4.39621e-05
0
8.77089e-05
4.37119e-05
0.000152709
0
3.51222e-05
0.000149199
0.0001338
0.000191583
0.000145297
0.000149707
0.000213805
0.000165329
0.000190862
0.000240916
0.000300498
0.000321323
0.000262475
0.000255902
0.00031273
0.00033252
0.000286038
0.00032179
0.000412334
0.000438794
0.00040911
0.000406753
0.000447992
0.000454151
0.000419513
0.000453725
0.000491954
0.000509666
0.000523271
0.000525693
0.000679351
0.000813962
0.000553369
0.00028069
0.000427168
0.000642293
0.00065669
0.00064907
0.000644705
0.00062937
0.000685633
0.000703864
0.00067734
0.000631164
0.000637364
0.000605668
0.000517242
0.000448277
0.000382474
0.000313254
0.000153142
2.43039e-05
0
0
0
0
0
0
0
0
0
0
0
0
0
0
0
0
0
0
0
0
0
0
0
0
0
0
0
0
0
0
0
0
0
0
0
0
0
0
0
0
0
0
0
0
0
0
0
0
0
0
0
0
0
0
0
0
0
0
0
0
0
0
0
0
0
0
0
0
0
0
0
0
0
0
0
0.000177013
0.000141335
0
0.000215387
0.000435158
0.000572339
0.000511702
0.000438639
0.000524868
0.00050393
0
0
0.000117903
1.49231e-05
0.000200262
0.000191148
1.63317e-05
0
0
0
0
0
0
0
2.66295e-05
0.000159837
1.83346e-05
4.44992e-05
2.79859e-05
0.000123375
0
0
0
0
0
0
0
0
8.61514e-05
0
0
4.04748e-05
0
0
0
7.51801e-05
0
0
4.38507e-05
0.000853734
0.00131195
0.0039064
0.00720995
0.00689382
0.00219761
0.000477433
0.000361304
0.000361221
0.000466767
0.000574836
0.000594832
0.000648634
0.000667913
0.000716688
0.000761841
0.000777703
0.000773669
0.000786275
0.000976202
0.00110615
0.000837144
0.000581175
0.000802829
0.00107151
0.000999899
0.000716121
0.000718919
0.000946104
0.000965363
0.000969807
0.000994887
0.000990897
0.00104323
0.00109065
0.00105265
0.00104046
0.00100611
0.00113869
0.0010592
0.001134
0.00132813
0.00125365
0.00125859
0.00131711
0.00137621
0.00140985
0.00169225
0.00162448
0.00191174
0.00181967
0.00238252
0.00142171
0.00222325
0.00237157
0.0024918
0.00288114
0.00320111
0.00450783
0.00502239
0.00310785
0.00501654
0.00553281
0.00829972
0.0109004
0.0160945
0.100501
0.0294141
0.0274404
0.0158767
0.0166848
0.00772903
0.00331518
0
0
0.00241416
0
0
0
0
0.342848
0
0
0.0421674
0.112186
0
0
0.212837
0
0
0
0
0
0
0
0
0.0216873
0
0
0
0
0.072035
0
0
0
0
0
0
0
7.87994e-05
0
0.00965006
0
0.00940409
0
0.0207269
0
0.0568732
0
0
0.0685781
0
0.00650958
0.0103037
0
0.0487653
0
0
0.0218689
0
0.00267603
0.0329218
0.0189389
0
0
0
0
0.0989491
0.145817
0.0199504
0
0.00464418
0.0230559
0.0370266
0
0.0570961
0.163908
0.00918986
0.208973
0
0.0147251
0
0
0
0
0
0
0
0
0
0
0
0
0
0
0
0
0
0
0
0.00103734
0
0
1.86858e-05
0.0108951
0.0051431
0
0
0.000677382
0.0053566
0
0
0
0.000903167
0.000993388
0
0
0
0.00158821
0.000772532
0.00245372
0
0.0014659
0.00223635
0.00194121
0.00209034
0.00107767
0.000498106
0.00105778
0.000848843
0.000893024
0.000819922
0.00114285
0.0019236
0.00178873
0.000783135
0.00105558
0.00232811
0.00237917
0.00170485
0.00196091
0.00297274
0.00282191
0.00216557
0.00247187
0.00299013
0.00260386
0.00256709
0.00320135
0.00313944
0.00297888
0.00329214
0.00365897
0.00427443
0.00344675
0.00219963
0.00272615
0.00364071
0.00372495
0.00376671
0.00380066
0.00374021
0.00407077
0.00432653
0.00418222
0.00392126
0.00406155
0.00375715
0.00330758
0.00252297
0.00223357
0.0011319
0.000448224
0
0
0
0
0
0
0
0
0
0
0
0
0
0
0
0
0
0
0
0
0
0
0
0
0
0
0
0
0
0
0
0
0
0
0
0
0
0
0
0
0
0
0
0
0
0
0
0
0
0
0
0
0
0
0
0
0.661794
0
0.918508
0.440398
0.218053
0
0
0
0
0
0
0
0
0
0
0
0
0
0
0
0
0.0010127
0
0
0
0
0
0
0.00048076
0
0
0
0
0
0
0
0
0
0
0
0
0
0
0
0
0
0
0
0
0
0
0
0
0
0
0
0
0
0
0
0
0
0
0.000375401
0
0
0
0.00174944
0
0.00605393
0.0125715
0.036302
0.0502124
0.0221462
0.00723049
0.00456665
0.0044233
0.00422151
0.0043953
0.00444961
0.00449769
0.00447189
0.00423621
0.00439974
0.00427714
0.00407683
0.00381448
0.00367186
0.00353425
0.00330418
0.00288285
0.00270891
0.00262685
0.00219205
0.00185784
0.00212375
0.00197228
0.00144751
0.00105195
0.000821213
0.000443634
0.000351194
0
0
0
0
0
0
0
0
0
0
0
0
0
0
0
0
0
0
0
0
0
0
0
0
0
0
0
0
0
0
0
0
0
0
0
0
0
0
0
0
0
0.00203126
0
0.00749625
0.00512313
0.010401
0.0377851
0.0155729
0
0.0501256
0.0277142
0
0.00520209
0.379089
0
0.20127
0.0253628
0.0450789
0.0224397
0.0364855
0.0175441
0.00648326
0
0.030218
0.0279233
0.0161039
0
0.049201
0.0504834
0
0.0419808
0
0.0672257
0
0.00423763
0
0
0
0
0
0
0.0327384
0.00469676
0.0187419
0.0372462
0.0599617
0.0815048
0.0865425
0.053588
0
0.00912434
0
0.00303706
0
0.00248167
0.00884511
0.0105751
0
0
0.0213282
0.0255399
0
0
0
0
0.0996247
0.022181
0
0
0
0.0121739
0.0245605
0
0.0198847
0
0.0132663
0
0
0
0.0236744
0
0
0
0
0
0
0
0
0
0
0
0
0
0
0
0
0
0
0
0
0
0.00382384
0.00237402
0
0
0
0.000203538
0
0
0
0.00229078
0
0
0
0
0.000163167
0.00214695
0.00117666
0
0.0011694
0.00283915
0.00201166
0.00295761
0.00227634
0.00233785
0.00278508
0.00222865
0.00248413
0.00273049
0.0035446
0.00403879
0.00372477
0.00319322
0.00369059
0.00436951
0.0042319
0.00418184
0.0052148
0.00603051
0.0055179
0.00512688
0.00568883
0.00603501
0.00561078
0.00584569
0.00649779
0.00648188
0.00636118
0.0065166
0.0080938
0.0101388
0.00736094
0.0037547
0.00546799
0.00779659
0.00806532
0.00805757
0.00801537
0.00792952
0.00859358
0.0092995
0.0090023
0.008615
0.00900949
0.00856919
0.00790369
0.00663471
0.00652592
0.00429764
0.00360833
0.00114323
0
0
0
0
0
0
0
0
0
0
0
0
0
0
0
0
0
0
0
0
0
0
0
0
0
0
0
0
0
0
0
0
0
0
0
0
0
0
0
0
0
0
0
0
0
0
0
0
0
0
0
0
0
0
0
0
0
0
0
0
0
0
0
0
0
0
0
0
0
0
0
0
0
0
0
0.0469725
0.101254
0.0171104
0.0138601
0.0147467
0.0251457
0.034282
0.032186
0.0264748
0.0165114
0.000104512
0
0
0
0
0.000554547
0
0
0
0
0
0
0
0
0
0
0
0
0
0
0
0
0
0
0
0
0
0
0
0
0
0.00141461
0
0
0
0.00401232
0.000270456
0
0.00102942
0.0118197
0.0176541
0.0563102
0.0725415
0.057798
0.0122353
0.00339528
0.00268167
0.00319715
0.0042013
0.00471627
0.0052482
0.0057911
0.00599005
0.00648293
0.00671497
0.00691386
0.00682291
0.00699955
0.00833587
0.00913137
0.00692324
0.00527915
0.00688714
0.00893564
0.00766137
0.00613322
0.00656417
0.0075211
0.00784414
0.00735028
0.006972
0.00695603
0.00660912
0.00687782
0.00677902
0.00672633
0.0068314
0.00659384
0.00591965
0.00624254
0.00587724
0.00602414
0.00578331
0.00601655
0.00556686
0.00578695
0.00536934
0.0053451
0.00547393
0.00534872
0.00552283
0.00499235
0.00459313
0.00557404
0.00392593
0.00412238
0.00408978
0.00590507
0.00522423
0.00482459
0.00468729
0.00553453
0.00402001
0.00432745
0.00360036
0.00518505
0.00378273
0.00582871
0.00364176
0.00562388
0.00346803
0.00551658
0.000953933
0.000561619
0
0.0016012
0.000425267
0
0.000262094
0.0135575
0
0.00852799
0.0244099
0
0.00116271
0.131099
0
0
0
0.0175129
0
0
0
0
0
0
0
0
0
0
0.176983
0
0
0
0
0
0
0.000315767
0
0.00523579
0.0407038
0
0
0.00606357
0
0.0283505
0.021429
0.0939736
0.0734705
0
0.0698532
0.0263531
0
0
0.0164462
0
0
0.0142637
0
0
0
0.0224088
0.0128617
0
0
0.0150524
0
0.11764
0
0.299465
0
0.00350909
0.00383035
0.00723386
0
0.0234224
0
0.00217334
0.0113816
0
0
0
0
0
0
0
0
0
0
0
0
0
0
0
0
0
0
0
0
0
0
0
0
0
0
0
0
0
0
0
0
0
0.00128031
0.0018934
0
0
0.000343321
0.000162487
0.00225015
0.00088999
0.000750359
0.00196553
0.00262106
0.00235757
0.00297232
0.00225331
0.00237534
0.00287568
0.00238494
0.0023968
0.0030186
0.00400755
0.00434682
0.00368731
0.00316797
0.0041675
0.00499874
0.00455083
0.00435981
0.00565221
0.00661534
0.00597479
0.00542289
0.00615679
0.00653637
0.00588084
0.00616741
0.00695205
0.00684523
0.00679856
0.00709251
0.00862237
0.0106302
0.00776085
0.00409399
0.0057861
0.00825243
0.00856966
0.00866938
0.00867713
0.00864115
0.00954959
0.010416
0.0102376
0.00993162
0.0104415
0.0101845
0.00938688
0.00811882
0.00765887
0.00502493
0.00310957
0
0
0
0
0
0
0
0
0
0
0
0
0
0
0
0
0
0
0
0
0
0
0
0
0
0
0
0
0
0
0
0
0
0
0
0
0
0
0
0
0
0
0
0
0
0
0
0
0
0
0
0
0
0
0
0
0
0.0527522
0.121451
0.533852
0
0
0
0
0
0
0
0
0
0
0
0
0
0
0
0
0
0
0.611199
0.581479
0.537747
0.502698
0.575586
0.443093
0.438111
0.124689
0.138808
0.0230315
0.00656827
0.0137167
0.0117669
0.00513895
0.00382143
0
0
0
0
0
0
0
0
0
0
0
0
0
0
0
0
0
0
0
0
0
0
0
0
0
0
0
0
0
0
0
0.00088891
0.0104517
0.0250785
0.0680796
0.0826986
0.0814228
0.0129842
0.00322542
0.00256544
0.00324394
0.00426127
0.00468881
0.00519226
0.00570102
0.00589578
0.0063213
0.00658378
0.00673349
0.00665402
0.00675848
0.00776078
0.00823084
0.0064881
0.00508746
0.00631
0.00766374
0.00667763
0.00553694
0.00576757
0.00637973
0.00643164
0.00614262
0.00574322
0.00569604
0.00531346
0.0053069
0.00501344
0.00489667
0.00470525
0.00451544
0.00393413
0.00418426
0.00370117
0.00361409
0.00339475
0.00328043
0.00281872
0.00283382
0.00261316
0.00210457
0.00247966
0.00185016
0.0017865
0.0021573
0.0011287
0.00204187
0.000934292
0
0.000568025
0.00179275
0.000861529
0.00151056
0.0021178
0.00286009
0
0.00127733
0.000557096
0.00195426
0
0.00163951
0.000257501
0.00364057
0
0.000706101
0
0
0.00789156
0.00886283
0
0
0
0
0.0359035
0.0380059
0
0
0.0148363
0.037289
0
0.400638
0
0.0500803
0.0164091
0.00854658
0.0121884
0.00723649
0
0
0.00617353
0
0
0
0.0735437
0
0.0056495
0
0
0.0124038
0.00499813
0
0
0
0
0
0
0.00776635
0
0.00483095
0.0193914
0
0
0
0
0.0149303
0
0.00962337
0
0.0157282
0.0148157
0
0.0227679
0.0157783
0
0
0.00363683
0
0
0.0657192
0.0214995
0.0737229
0
0
0
0
0.00534309
0.0113628
0
0.0188501
0
0
0
0
0
0
0
0
0
0
0
0
0
0
0
0
0
0
0
0
0
0
0
0
0
0
0
0
0
0
0
0
0
0.000158707
0
0
0.000164693
0.00281618
0
0
0.000365176
0
0.00268393
0.000924496
0.000417084
0.00179633
0.00308128
0.0019375
0.0032086
0.00270525
0.0028752
0.0031024
0.00263235
0.00257402
0.0036513
0.00462822
0.00486847
0.00416391
0.0037965
0.00483855
0.00554042
0.00503331
0.00501303
0.00647782
0.00739894
0.00673603
0.00621398
0.00703914
0.00726748
0.00651359
0.00695367
0.00777025
0.00773452
0.00780861
0.00811166
0.00995064
0.0121558
0.0087485
0.00459084
0.00665172
0.0097096
0.0101364
0.0103784
0.0104719
0.010608
0.0119382
0.0131569
0.0132364
0.0130789
0.0140156
0.0138846
0.0127471
0.0114167
0.0108597
0.00765573
0.00393014
0
0
0
0
0
0
0
0
0
0
0
0
0
0
0
0
0
0
0
0
0
0
0
0
0
0
0
0
0
0
0
0
0
0
0
0
0
0
0
0
0
0
0
0
0
0
0
0
0
0
0
0
0
0
0
0
0.298303
0
0.298145
0
0
0
0
0
0
0
0
0
0
0
0
0
0
0
0
0
0
0
0.44661
0.140303
0
0.189288
0.478609
0.598826
0.514757
0.314104
0.248407
0.120012
0.114763
0.0447469
0.166987
0
0.20084
0
0.0113149
0
0
0
0
0.00796108
0
0.0132639
0
0.00126384
0.00126467
0.00088952
0
0
0
0
0
0
0
0
0
0
0
0
0
0
0
0
0
0
0.00221093
0.0112341
0.0434335
0.0878157
0.102061
0.0930592
0.0206863
0.00244666
0.00199393
0.00283795
0.00406618
0.00470997
0.00524524
0.00574168
0.00604974
0.0064572
0.00678766
0.00697151
0.00695759
0.00701817
0.00818748
0.00869932
0.0068588
0.00529755
0.00663587
0.007986
0.00708482
0.00580922
0.00588817
0.00667704
0.00661597
0.00642319
0.00616123
0.00602799
0.00586728
0.00590433
0.0054312
0.00527887
0.0049123
0.00480978
0.00435128
0.00451968
0.0043434
0.00409964
0.00375775
0.00366383
0.00318698
0.00304491
0.00319899
0.00239278
0.00321924
0.00201042
0.00221642
0.0021603
0.00143742
0.00231261
0.00135066
0.000502856
0.00173868
0.00108373
0.000837107
0.00292889
0.0016768
0.00203133
0.000129676
0.0011357
0.000182592
0.00134549
0
0.00149261
0.000884176
0.00322942
0
0.000890639
0
0
0.00400748
0.00681904
0
0.00488161
0.00693997
0
0.0283273
0.0440232
0
0
0.0556864
0.0178396
0
0.0182008
0
0.299051
0.0405082
0.0182669
0.0182621
0.0212784
0
0
0.000908755
0
0
0
0.19347
0
0
0
0.222234
0
0
0
0.00585358
0.000498913
0.0174154
0
0.000744352
0.0478058
0
0.00237604
0.0357492
0
0.0453452
0.0459509
0
0.0127754
0.0124002
0
0
0
0
0.00204604
0
0
0
0.00945662
0.026061
0
0
0.0954941
0
0.0990721
0.162186
0
0
0
0
0.0104043
0
0.0143948
0.0042165
0
0.00836967
0
0
0
0
0
0
0
0
0
0
0
0
0
0
0
0
0
0
0
0
0
0
0
0
0
0
0.000700029
0
0
0
0
0
0
0
0.000861111
0.000538514
0
0.000670347
0
0.00348514
0
0.00205826
0.00139196
0.00186299
0.00311211
0.00215794
0.00315398
0.00375931
0.00329712
0.00262636
0.00319808
0.00418905
0.00524309
0.00493292
0.00439913
0.00450366
0.0055339
0.00583518
0.00536318
0.00570054
0.00730332
0.00795661
0.00719615
0.00692271
0.00771384
0.00787744
0.00729459
0.00778022
0.00854321
0.00849379
0.00866138
0.00900901
0.0111586
0.0137922
0.00994821
0.00536953
0.00786123
0.0112112
0.0119836
0.0124804
0.0128254
0.0132615
0.0152613
0.0173559
0.0177346
0.0181518
0.0196302
0.019928
0.0189371
0.0176849
0.0170396
0.0119059
0.00737557
0
0
0
0
0
0
0
0
0
0
0
0
0
0
0
0
0
0
0
0
0
0
0
0
0
0
0
0
0
0
0
0
0
0
0
0
0
0
0
0
0
0
0
0
0
0
0
0
0
0
0
0
0
0
0
0
0
0
0.32577
0.43246
0
0
0
0
0
0
0
0
0
0
0
0
0
0
0
0
0
0
0
0.291935
0.397453
0.029573
0.314884
0.526702
0.240627
0.692375
0.547531
0.197169
0.233193
0.0245665
0.128672
0.0818625
0.134741
0.268589
0.0218028
0.038588
0
0
0
0
0.377659
0.06916
0.0745199
0
0.00277051
0.0153017
0
0
0
0
0
0
0
0
0.00392797
0
0
0
0
0
0
0.00624362
0
0
0.00345838
0.0185887
0.0517068
0.118353
0.153958
0.114432
0.0278787
0.0021987
0.00190635
0.0028515
0.00405566
0.00474667
0.00533534
0.005962
0.0062998
0.00669094
0.00708063
0.00720355
0.00721278
0.00728129
0.00847163
0.00891839
0.00715942
0.00549448
0.00675569
0.00834593
0.00729694
0.00596335
0.00627754
0.00692774
0.00695879
0.00679736
0.00639772
0.00624624
0.00594627
0.00602799
0.00562864
0.00549163
0.00549201
0.00532447
0.00467053
0.00482505
0.00453218
0.00433501
0.0039651
0.00402238
0.0036855
0.00351369
0.00336219
0.002699
0.00327921
0.00245179
0.0021325
0.00368937
0.00132866
0.00281429
0.00150163
0.000370896
0.00201756
0
0
0.00424779
0.00155491
0.00339369
0
0.00210447
0.000223566
0.00189015
0
0.00261045
0
0.00152936
0.000238631
0.00519914
6.22818e-06
0.000364858
0
0
0.00487781
0.0204832
0
0
0.00881626
0.00398827
0
0
0.0206968
0.00691181
0
0
0
0.128411
0.0399459
0.0180151
0.0214787
0.028883
0.00689998
0
0
0.000172213
0
0
0.0638052
0
0
0
0
0
0
0
0
0
0.0077008
0
0
0.0225601
0
0.0124462
0.0286061
0.00364948
0
0
0.0676584
0
0
0.0150457
0.0171326
0.0165589
0.0118221
0
0
0.0197936
0.00615471
0
0.0202919
0
0
0.167111
0
0.0695492
0.0605338
0
0
0
0
0.0023388
0.0251146
0
0.0280548
0
0.0221789
0
0
0
0
0
0
0
0
0
0
0
0
0
0
0
0
0
0
0
0
0
0
0
0
0
0
0.0119881
0
0
0
0
0
0
0
0.001451
0
0
0.00139486
0.00124962
0
0.000648579
0.0016227
0.00172984
0.000334958
0.00306389
0.00282772
0.00375198
0.00379126
0.00319471
0.00273064
0.00335733
0.00486289
0.00533741
0.00515913
0.00486837
0.00507385
0.00583272
0.00599966
0.00571566
0.00626939
0.00780338
0.008436
0.00785898
0.00761475
0.0083748
0.00837134
0.00781138
0.00844987
0.00924795
0.00942539
0.00974426
0.0101277
0.0126696
0.0155019
0.0112241
0.00626246
0.00932586
0.0136077
0.0147586
0.0157639
0.0165225
0.0176286
0.0207929
0.024276
0.0258389
0.0277964
0.0310906
0.0322693
0.0315145
0.031045
0.031799
0.0290199
0.00968331
0
0
0
0
0
0
0
0
0
0
0
0
0
0
0
0
0
0
0
0
0
0
0
0
0
0
0
0
0
0
0
0
0
0
0
0
0
0
0
0
0
0
0
0
0
0
0
0
0
0
0
0
0
0
0
0
0.264981
0.276991
0.318207
0
0
0
0
0
0
0
0
0
0
0
0
0
0
0
0
0
0
0
0
0
0.109337
0.564316
0.00622409
0.54485
0.302736
0.389297
0.371638
0.287066
0.0140334
0.00969346
0
0.0357026
0
0.0317665
0.195132
0
0
0
0
0
0.179238
0.0640416
0.235206
0
0.248723
0.0108501
0
0
0
0
0
0
0
0
0
0
0
0
0
0.00526764
0
0
0
0.0187992
0
0.0215306
0.0737591
0.148014
0.215
0.155898
0.0369444
0.00187189
0.00191375
0.00325254
0.0045476
0.00534005
0.00587711
0.00635808
0.00675974
0.00706285
0.00748564
0.00753714
0.00755412
0.00754694
0.00882284
0.00931149
0.00736931
0.00559548
0.0069351
0.00845015
0.00751501
0.00609853
0.00618351
0.0070269
0.00687289
0.0067403
0.00658318
0.0062805
0.00619471
0.00645732
0.00590044
0.00565198
0.00538938
0.0054125
0.0047704
0.00483277
0.00500856
0.00481864
0.00420144
0.00420801
0.00384412
0.00348768
0.00377242
0.00313283
0.00340596
0.00301114
0.00260724
0.00314346
0.00156991
0.00281637
0.00196204
0.00164281
0.00281365
0.000250299
0
0.00390408
0.00224993
0.00195646
0.000913
0.00197041
0.000241999
0.000946257
0.000515317
0.00294176
0
0.00115609
0.00241173
0.0029488
0
0.00159046
0.00218209
0
0.0069071
0.0184554
0
0.000643001
0.0117951
0
0.00951552
0.0258076
0
0
0.00446925
0.00178125
0
0.0365484
0
0.32046
0.0561128
0.0405406
0.0163885
0
0
0
0
0
0.181968
0.0354272
0
0
0
0
0
0
0
0.00681294
0.00410147
0
0.00364384
0
0
0.00342374
0
0
0
0.00307581
0
0.02218
0.0477105
0.000788141
0.0223609
0
0
0
0.00884759
0.00548353
0
0
0
0
0
0.151963
0
0.0709376
0
0.0291915
0.0637329
0
0
0
0.0174166
0
0
0
0
0
0
0
0
0
0
0
0
0
0
0
0
0
0
0
0
0
0
0
0
0
0.00223424
0
0
0
0
0.00492197
0.00338699
0
0
0
0
0
0
7.18964e-05
0
0
0.000584263
2.19839e-05
0.00122385
0
0.00320103
0
0.0014684
0.00341985
0.00204432
0.00423287
0.00402341
0.00311236
0.0028389
0.00405804
0.00527021
0.00547884
0.00510065
0.00519916
0.00570119
0.0061866
0.00611957
0.00609589
0.00693916
0.00848655
0.00882994
0.0082682
0.00833157
0.00896117
0.00902538
0.00877074
0.00938056
0.010147
0.0103921
0.0108669
0.0114306
0.0146137
0.0181832
0.0133527
0.00800095
0.0119935
0.0170827
0.0194264
0.0216854
0.0238755
0.0271375
0.0341013
0.0437129
0.05145
0.056845
0.0816866
0.0728131
0.10688
0.0922891
0.160778
0.026631
0.165402
0
0
0
0
0
0
0
0
0
0
0
0
0
0
0
0
0
0
0
0
0
0
0
0
0
0
0
0
0
0
0
0
0
0
0
0
0
0
0
0
0
0
0
0
0
0
0
0
0
0
0
0
0
0
0
0
0.257125
0.127615
0.385522
0.39298
0.081142
0
0
0
0
0
0
0
0
0
0
0
0
0
0
0
0
0
0.322043
0
0
0
0.649467
0.293449
0.495598
0.419762
0.471864
0.194883
0.0498368
0
0
0.23679
0.0778815
0.0818638
0.160129
0.218375
0
0
0
0.0848837
0.33986
0.0942007
0.184541
0.0785298
0.302623
0.0745348
0.0575454
0
0
0
0
0
0
0.0223846
0
0
0.118102
0
0
0
0.0312376
0
0
0
0.017212
0.0590562
0.161067
0.233469
0.307985
0.237953
0.0543074
0.00171952
0.00251115
0.00459632
0.00639644
0.00676244
0.00692335
0.00759056
0.00782581
0.00799384
0.00833106
0.00817259
0.00812445
0.00803304
0.00923393
0.00967148
0.00769192
0.00576877
0.00696863
0.00874233
0.00766052
0.00608314
0.0064611
0.00719331
0.0070763
0.00699998
0.00669938
0.0063838
0.0060349
0.00630068
0.00590663
0.005577
0.00575937
0.00592639
0.00501356
0.00496861
0.00493038
0.0048433
0.00429302
0.00440256
0.00416128
0.00398495
0.00388283
0.00327783
0.00330967
0.00319227
0.00249631
0.0045267
0.00147738
0.00318702
0.00203159
0.00210888
0.00281545
0
0
0.00457107
0.000861016
0.00252554
0.00137904
0.00295311
0
0.00174995
0.00103717
0.00279437
0
0.000558334
0.00167157
0.0021708
0.000760449
0.00359212
0.00115808
0
0
0
0.00315848
0.0209849
0
0
0.012473
0.0270583
0
0
0.00407699
0.00816375
0
0.00786862
0.0061559
0.0845529
0.0851278
0.0193792
0.0281772
0
0
0
0
0
0.0136426
0.0704056
0
0
0.0682015
0.0860332
0
0
0
0.00646931
0.00517314
0
0
0.0215552
0
0
0.0342908
0.00572798
0.0195852
0
0.00984613
0
0.0141375
0
0.0204098
0.0131615
0.00982393
0.00460911
0
0.00694603
0
0
0.0202418
0
0
0.0797582
0.0544359
0.0876038
0
0
0.14507
0
0
0
0.0287575
0
0.0244709
0
0.00349683
0
0
0
0
0
0
0
0
0
0
0
0
0
0
0
0
0
0
0
0
0
0
0
0
0
0
0.00261729
0.00327193
0
0
0
0.00260476
0
0
0
0
0
0.00104797
0.00228796
0
0
0.00320032
0.000382973
0
0.00440738
0.00297491
0.00438655
0.00350967
0.00312955
0.00281985
0.00470604
0.00539293
0.00530905
0.00533841
0.0058165
0.00615639
0.00625199
0.00619159
0.00651756
0.0075393
0.0088668
0.00934558
0.00917331
0.00918448
0.00973858
0.00968892
0.00954158
0.010345
0.0113076
0.0120359
0.0127474
0.01354
0.0175971
0.0218786
0.0170624
0.0111847
0.0174364
0.0275884
0.032546
0.0393639
0.0489483
0.0597886
0.0927929
0.110201
0.164437
0.188915
0.292285
0.26649
0.413512
0.309003
0.45389
0.0741202
0.261951
0
0
0
0
0
0
0
0
0
0
0
0
0
0
0
0
0
0
0
0
0
0
0
0
0
0
0
0
0
0
0
0
0
0
0
0
0
0
0
0
0
0
0
0
0
0
0
0
0
0
0
0
0
0
0
0
0.304419
0.548531
0.393433
0
0
0
0
0
0
0
0
0
0
0
0
0
0
0
0
0
0
0
0
0.183165
0
0
0
0.0832998
0.418214
0.331707
0.311243
0.062414
0.191203
0.0146677
0
0
0.206158
0.161654
0.0476434
0
0
0
0
0
0.11179
0.0305403
0.147431
0.04904
0.142001
0.112866
0.0701038
0
0
0
0
0
0
0.127046
0.0554156
0
0
0.170962
0
0
0
0.143095
0
0
0
0.199343
0.402978
0.388835
0.429833
0.370401
0.0890785
0.0031129
0.00435474
0.00837542
0.0104856
0.0105332
0.00991368
0.00995143
0.0100888
0.00969326
0.00975174
0.00931242
0.00900648
0.00863219
0.00991507
0.00995348
0.00787028
0.00589727
0.00691087
0.00859929
0.00768269
0.00606292
0.00621608
0.00719214
0.00686549
0.00670807
0.00676382
0.00629129
0.00607319
0.00663363
0.00617274
0.00567019
0.00536312
0.00570635
0.00509886
0.0047481
0.00516763
0.00536955
0.00453712
0.00442591
0.00410585
0.00384854
0.00392568
0.0039668
0.00342374
0.00346844
0.00306582
0.00353311
0.00208933
0.00269339
0.00245339
0.00315221
0.00320744
0.00131208
0.00104207
0.00231308
0.00231697
0.00253715
0.00100999
0.00264362
0.000586256
0.00105632
0
0.00335153
0
0.00110619
0
0.00232367
0.00401541
0.00123316
0
0.00235009
0.00297092
0
0.00987336
0.0216847
0
0
0.00852232
0.00785892
0
0.0018405
0
0.0026481
0
0.00252746
0
0.0623286
0
0.320299
0.0424018
0.00774995
0
0
0
0
0.227161
0.021315
0
0
0.00901413
0
0
0
0
0
0.000544125
0
0.00466313
0
0.0233598
0
0.0758779
0.0151631
0
0.0909789
0
0.0156383
0.0265906
0.0148258
0.00245049
0.00579431
0
0.00617533
0.0181423
0.0195828
0
0
0.0157473
0
0
0.00872739
0
0.107631
0.0668919
0.0741763
0
0
0
0
0.00793723
0.0108859
0
0.0164789
0
0
0
0
0
0
0
0
0
0
0
0
0
0
0
0
0
0
0
0
0
0
0
0
0
0
0
0.00231681
0
0
0
0
0.00221022
0
0
0
0
0
0
0.000958405
0
0
0.0037556
6.4522e-05
0.000440957
0.00285678
0.00418343
0.00384021
0.00328077
0.00315703
0.00361673
0.00493923
0.00564663
0.00521149
0.00550809
0.00633228
0.00666992
0.00643519
0.00641693
0.00715527
0.00835698
0.00971696
0.00994182
0.00985026
0.0102555
0.0106645
0.0109385
0.011212
0.012029
0.0132857
0.014249
0.0156734
0.0179082
0.0254578
0.0360849
0.030941
0.0238176
0.0446287
0.0600768
0.101045
0.122389
0.177672
0.219546
0.340359
0.388427
0.482744
0.486738
0.527722
0.436803
0.443863
0.345835
0.408669
0.147289
0.273742
0
0
0
0
0
0
0
0
0
0
0
0
0
0
0
0
0
0
0
0
0
0
0
0
0
0
0
0
0
0
0
0
0
0
0
0
0
0
0
0
0
0
0
0
0
0
0
0
0
0
0
0
0
0
0
0
0.249537
0.278565
0.3931
0.518095
0.643314
0
0
0
0
0
0
0
0
0
0
0
0
0
0
0
0
0
0
0
0.199122
0.0371503
0
0
0.0983469
0.242056
0.484556
0.0140944
0.200155
0
0.000930684
0
0
0.112192
0.257773
0.0159411
0
0
0
0.133387
0
0.00391596
0.0951447
0.0914669
0.145259
0.27203
0.101798
0
0
0
0
0
0
0
0
0.2069
0
0
0.0645218
0.247004
0
0
0.0936535
0.134678
0
0.541712
0.879867
0.684464
0.593785
0.59586
0.156478
0.00851149
0.0113445
0.0225262
0.0245523
0.0221625
0.0209683
0.0184766
0.0183784
0.0162767
0.0153904
0.0133744
0.0121547
0.0109401
0.0115136
0.0111168
0.00827048
0.006168
0.0066138
0.00845289
0.00731841
0.00547723
0.00613215
0.0071512
0.00630975
0.00659809
0.00667806
0.00612153
0.005572
0.00615768
0.00603124
0.00535639
0.00552714
0.00615951
0.00528871
0.00486481
0.00475039
0.00510599
0.00466458
0.00444599
0.00424874
0.0043372
0.00404235
0.00388274
0.00320178
0.003599
0.00268865
0.00475152
0.0020323
0.00285686
0.00262274
0.00396314
0.00260939
0.00265001
0.000944464
0.00183886
0.00184664
0.00230222
0.0013309
0.00385254
0.000565603
0.000774224
0.00111691
0.00260645
0.0013163
0.000701037
0.000492959
0.00238561
0.00155137
0.00437393
0.00109994
0.0010204
0
0.000180495
0.00554062
0
0
0.0119432
0.00285675
0
0
0.0125889
0
0
0
0.00354457
0
0.020137
0.00675721
0.00345989
0.0571105
0.0197713
0
0.00126468
0
0
0
0.0140399
0
0.0364536
0.016823
0
0
0
0.00378734
0.0261734
0.00355839
0
0
0
0
0.0153573
0
0
0
0.0109445
0
0.0153683
0.00165885
0
0.0085576
0.0107448
0.0119305
0.0121853
0.00342431
0
0
0.0103707
0
0
0
0.0703282
0
0.098203
0
0
0
0
0
0
0
0
0
0
0
0
0
0
0
0
0
0
0
0
0
0
0
0
0
0
0
0
0
0
0
0
0
0
0
0
0
0
0.00270105
0
0
0
0.00152986
0
0
0.000557472
0
0
0.000758173
0
0
0
0.00389801
0
0.00251767
0.00244036
0.00399105
0.00372041
0.00299617
0.00341069
0.00409831
0.0053494
0.00530116
0.00517339
0.00610675
0.00712887
0.00708084
0.00655677
0.00668376
0.00789067
0.0093064
0.0103843
0.010985
0.0116059
0.0119839
0.0125028
0.012908
0.0137603
0.0161125
0.0185414
0.0241142
0.0301821
0.0384522
0.0715455
0.0978875
0.0897132
0.10462
0.181362
0.215477
0.309265
0.35747
0.408018
0.425245
0.487116
0.473947
0.491925
0.484825
0.510873
0.455962
0.413587
0.317409
0.349905
0.152003
0.19434
0
0
0
0
0
0
0
0
0
0
0
0
0
0
0
0
0
0
0
0
0
0
0
0
0
0
0
0
0
0
0
0
0
0
0
0
0
0
0
0
0
0
0
0
0
0
0
0
0
0
0
0
0
0
0
0
0.289144
0.374471
0.545632
0.0377681
0
0
0
0
0
0
0
0
0
0
0
0
0
0
0
0
0
0
0
0
0.214954
0.350258
0.151163
0.0929492
0
0.302809
0.163383
0.303444
0.123488
0
0
0.218408
0
0
0.024264
0.112059
0
0
0
0.145991
0.0300198
0.221905
0.0816568
0.189416
0.123026
0.21618
0.0930342
0
0
0
0
0
0
0
0
0
0.249174
0
0
0
0.0946776
0
0
0
0
0.612209
0.769282
0.890799
0.724583
0.761619
0.269898
0.0145878
0.0197241
0.0569397
0.056661
0.0641525
0.0422243
0.0531564
0.0442847
0.0423518
0.0347673
0.0329197
0.025501
0.0231617
0.0215705
0.0205541
0.0133459
0.00955641
0.00987605
0.00974196
0.00800065
0.00575304
0.00491944
0.00628164
0.00528587
0.00539193
0.00612871
0.00550233
0.00484906
0.0061994
0.00611855
0.00510024
0.00469681
0.00550241
0.0053653
0.00446267
0.0046975
0.00552309
0.00485384
0.00437146
0.00391372
0.00392287
0.00396747
0.00423321
0.00395047
0.00353688
0.00306875
0.00331219
0.00301565
0.00192012
0.00284875
0.00396498
0.00305844
0.00306326
0.00327871
0.000805863
0.00158897
0.00353169
0.00105776
0.00212651
0.000667616
0.00139117
0
0.00164867
0.00241618
0.000844259
0.000801789
0.00156632
0.000109131
0.00319971
0.00504472
0.00187793
0
0.00682458
0.00521239
0
0
0.0186224
0.000568831
0
0
0.00756873
0.00115411
0.001216
0
0.0018732
0
0.0132984
0
0.0176059
0.154376
0.0510925
0.0023853
0.00418699
0
0
0
0.0358802
0
0
0
0
0
0
0
0
0
0
0.00596114
0.0117345
0
0.0129815
0.0108039
0
0.0222598
0.00436855
0
0
0.00921564
0
0.00437418
0.0100597
0.00696523
0.00868112
0.0315704
0.000238227
0
0
0.0294645
0
0.0653361
0.147986
0.0182476
0.095989
0.0844573
0
0
0
0.311863
0.144095
0.0311394
0
0
0
0
0
0
0
0
0
0
0
0
0
0
0
0
0
0
0
0
0
0
0
0
0
0
0
0.010732
0.00337907
0
0
0
0
0
0
0
0
0
0
0
0
0
0.00139892
0
0.00300638
0.00196929
0.00131837
0
0.00340607
0.00476046
0.002933
0.00347048
0.00451517
0.00474214
0.00546433
0.00510406
0.00563854
0.00668372
0.00799062
0.00779689
0.00697134
0.00731159
0.00934307
0.0112475
0.012653
0.0127205
0.0143665
0.0169903
0.0177563
0.0204208
0.0286431
0.0356969
0.0492608
0.070698
0.101337
0.135436
0.28401
0.330317
0.248176
0.258487
0.336051
0.353597
0.419078
0.431923
0.433838
0.447412
0.48609
0.475892
0.488618
0.475893
0.513127
0.474674
0.454496
0.333363
0.295098
0.19437
0.200908
0.011027
0
0
0
0
0
0
0
0
0
0
0
0
0
0
0
0
0
0
0
0
0
0
0
0
0
0
0
0
0
0
0
0
0
0
0
0
0
0
0
0
0
0
0
0
0
0
0
0
0
0
0
0
0
0
0
0.360917
0.363451
0.487768
0.387716
0.824132
0
0
0
0
0
0
0
0
0
0
0
0
0
0
0
0
0
0
0
0
0
0.256856
0.414573
0.356809
0.262671
0.119311
0.336558
0
0.351807
0
0
0.191246
0
0.0572282
0.0798179
0
0
0
0
0
0
0.143725
0.155206
0.175373
0.224005
0.0732831
0
0
0
0
0
0
0.196134
0
0
0
0.274457
0
0
0
0.164289
0
0
0
0.603064
0.778502
0.968052
0.831878
0.894086
0.446402
0.00857092
0.0187303
0.0925948
0.134453
0.11892
0.101639
0.200968
0.112763
0.132857
0.0852378
0.103237
0.0790999
0.0832931
0.0567962
0.0623483
0.036939
0.0255081
0.0246312
0.02393
0.0164591
0.0124448
0.00899013
0.00783494
0.0085731
0.00582641
0.00484042
0.00514048
0.00386524
0.00438082
0.00512693
0.00421339
0.00419899
0.00567438
0.00533642
0.00426159
0.00386264
0.00472771
0.00484257
0.00430112
0.00399023
0.00437645
0.0039118
0.00398335
0.00333571
0.00354641
0.00270489
0.00371401
0.00376452
0.00218425
0.00303049
0.00470229
0.00258163
0.00365369
0.00349186
0.000374674
0.00169918
0.00457029
0.000505302
0.00287918
0.00235763
0.000947462
2.81445e-05
0.00254762
0.00164366
0.00408235
0.000140084
0.00140267
7.96615e-05
0.00460761
0.00246962
0.000234511
0
0.00630618
0.000383078
0
0.00198847
0.0041751
0
0.000320519
0.00253482
0.0076902
0
0.00203521
0
0.00133337
0
0.00271939
0.00305559
0
0
0.138034
0.00935943
0.00587815
0
0
0
0
0
0.00695116
0
0
0
0
0.0108716
0.00837609
0
0
0
0.0166792
0
0.0266881
0.0313594
0.0149513
0.0349773
0.0221456
0
0
0.0222927
0.011034
0
0.00817505
0.0142552
0.0104886
0
0.000509405
0
0.00255921
0
0
0
0.0334271
0
0.10287
0.0729876
0
0
0
0
0
0
0
0
0
0
0
0
0
0
0
0
0
0
0
0
0
0
0
0
0
0
0
0
0
0
0
0
0
0.0088311
8.17828e-05
0
0
0
0
0
0
0
0
0
0.0027391
0
0
0
0
0
0.00199797
0.00151492
0.00115473
0.00133406
0.00251929
0.0053016
0.00393921
0.00429075
0.00501412
0.00547957
0.00529215
0.00560671
0.0061745
0.00813775
0.00992662
0.00935038
0.00817181
0.00850607
0.0125814
0.0169611
0.0181291
0.0188481
0.0312451
0.0380634
0.0406417
0.0610235
0.105429
0.111888
0.193005
0.229539
0.260796
0.290736
0.406493
0.407266
0.280858
0.279815
0.357175
0.3614
0.423871
0.415549
0.409603
0.414956
0.460223
0.459939
0.488065
0.471191
0.471648
0.44746
0.399897
0.36481
0.279777
0.233971
0.1791
0
0
0
0
0
0
0
0
0
0
0
0
0
0
0
0
0
0
0
0
0
0
0
0
0
0
0
0
0
0
0
0
0
0
0
0
0
0
0
0
0
0
0
0
0
0
0
0
0
0
0
0
0
0
0
0
0.321309
0.390028
0.639109
0.0795414
0
0
0
0
0
0
0
0
0
0
0
0
0
0
0
0
0
0
0
0
0
0
0
0
0.687553
0.193446
0.257772
0.271873
0
0
0
0
0.0621661
0.230802
0.0768394
0.0317468
0
0
0
0.101105
0.146094
0
0.0231875
0.169159
0.182559
0.178718
0.101444
0
0
0
0
0
0
0.0122703
0.0729078
0.0263258
0
0
0.121638
0.223914
0
0
0.0747831
0.0316593
0
0.573948
0.717633
0.975077
0.920751
0.976907
0.522438
0
0.0185342
0.151197
0.234281
0.203023
0.192872
0.206213
0.226837
0.207467
0.189906
0.178138
0.1758
0.147909
0.140207
0.137439
0.107369
0.0786793
0.0713104
0.052042
0.0578957
0.0324664
0.0273559
0.0219595