/*--------------------------------*- C++ -*----------------------------------*\
| =========                 |                                                 |
| \\      /  F ield         | OpenFOAM: The Open Source CFD Toolbox           |
|  \\    /   O peration     | Version:  v2006                                 |
|   \\  /    A nd           | Website:  www.openfoam.com                      |
|    \\/     M anipulation  |                                                 |
\*---------------------------------------------------------------------------*/
FoamFile
{
    version     2.0;
    format      ascii;
    class       volScalarField;
    location    "40";
    object      nut;
}
// * * * * * * * * * * * * * * * * * * * * * * * * * * * * * * * * * * * * * //

dimensions      [0 2 -1 0 0 0 0];


internalField   nonuniform List<scalar> 
93840
(
2.80443e-08
2.80838e-08
2.79297e-08
2.79883e-08
2.78912e-08
2.79899e-08
2.79264e-08
2.81271e-08
2.80498e-08
2.79985e-08
2.82065e-08
2.8322e-08
2.86259e-08
2.91213e-08
2.99132e-08
3.06578e-08
2.9555e-08
3.10078e-08
1.99342e-08
6.21895e-12
4.7375e-09
2.64903e-07
5.04204e-06
1.80193e-05
2.6663e-05
8.49154e-06
3.43554e-06
1.58451e-05
8.55654e-06
1.38926e-05
1.32242e-05
1.18369e-05
1.35386e-05
1.16993e-05
1.29205e-05
1.19126e-05
1.24503e-05
1.20453e-05
1.21067e-05
1.21257e-05
1.19465e-05
1.2149e-05
1.19253e-05
1.21528e-05
1.19587e-05
1.21308e-05
1.19812e-05
1.20934e-05
1.19807e-05
1.19912e-05
1.19092e-05
1.18662e-05
1.17392e-05
1.16184e-05
1.15089e-05
1.14097e-05
1.12286e-05
1.10327e-05
1.07602e-05
1.05297e-05
1.02732e-05
1.00138e-05
9.77528e-06
9.68326e-06
9.61979e-06
9.75402e-06
9.97265e-06
1.02475e-05
1.04839e-05
1.07577e-05
1.10323e-05
1.12109e-05
1.12963e-05
1.12822e-05
1.11647e-05
1.09365e-05
1.05966e-05
1.01057e-05
9.62684e-06
9.42339e-06
9.41019e-06
9.12546e-06
9.21751e-06
1.06289e-05
1.15108e-05
1.06428e-05
1.00738e-05
1.1316e-05
1.2216e-05
1.16196e-05
1.14722e-05
1.22868e-05
1.26092e-05
1.22812e-05
1.2467e-05
1.30037e-05
1.29258e-05
1.29308e-05
1.3325e-05
1.34321e-05
1.34605e-05
1.37909e-05
1.38995e-05
1.423e-05
1.46119e-05
1.47105e-05
1.47262e-05
1.50621e-05
1.53062e-05
1.56424e-05
1.59114e-05
1.62357e-05
1.65094e-05
1.68993e-05
1.72246e-05
1.75924e-05
1.78879e-05
1.82676e-05
1.85559e-05
1.88774e-05
1.91138e-05
1.93947e-05
1.95256e-05
1.97251e-05
1.97108e-05
1.96849e-05
1.97721e-05
1.95635e-05
1.9627e-05
1.95294e-05
1.93797e-05
1.93137e-05
1.91626e-05
1.91231e-05
1.90183e-05
1.89274e-05
1.88001e-05
1.87551e-05
1.86358e-05
1.86186e-05
1.85352e-05
1.84792e-05
1.83747e-05
1.833e-05
1.82606e-05
1.82148e-05
1.81485e-05
1.8108e-05
1.80076e-05
1.79238e-05
1.78312e-05
1.77469e-05
1.7638e-05
1.75322e-05
1.73998e-05
1.72654e-05
1.71075e-05
1.69447e-05
1.67437e-05
1.65611e-05
1.63827e-05
1.61861e-05
1.59351e-05
1.56858e-05
1.54035e-05
1.50855e-05
1.46902e-05
1.42669e-05
1.37878e-05
1.32049e-05
1.23593e-05
1.0755e-05
7.17591e-06
1.69571e-06
1.78703e-06
7.29069e-06
3.51105e-06
2.02992e-08
8.38656e-08
8.76882e-07
1.15777e-07
1.23881e-07
6.79001e-10
2.00112e-07
3.769e-07
2.32502e-07
1.05074e-08
2.98076e-06
6.00955e-06
6.02324e-08
4.1151e-06
1.84261e-05
1.9843e-05
1.55159e-05
1.90668e-05
2.46313e-05
2.78894e-05
2.93167e-05
2.97908e-05
2.99816e-05
2.98719e-05
2.97938e-05
2.96182e-05
2.95031e-05
2.93093e-05
2.9157e-05
2.89161e-05
2.87469e-05
2.8458e-05
2.82946e-05
2.80882e-05
2.79574e-05
2.7754e-05
2.76401e-05
2.74146e-05
2.72714e-05
2.70426e-05
2.69363e-05
2.67289e-05
2.66612e-05
2.65585e-05
2.65236e-05
2.63286e-05
2.62292e-05
2.59689e-05
2.58399e-05
2.56122e-05
2.55149e-05
2.52697e-05
2.51574e-05
2.50107e-05
2.51297e-05
2.50278e-05
2.51466e-05
2.49499e-05
2.4957e-05
2.47454e-05
2.47071e-05
2.45367e-05
2.45614e-05
2.44021e-05
2.44819e-05
2.43405e-05
2.44122e-05
2.42616e-05
2.42876e-05
2.41578e-05
2.42174e-05
2.3904e-05
2.35964e-05
2.3162e-05
2.05691e-05
1.59342e-05
1.38738e-05
1.38944e-05
1.41256e-05
1.42417e-05
1.42988e-05
1.42332e-05
1.41568e-05
1.40329e-05
1.38623e-05
1.36734e-05
1.34297e-05
1.32028e-05
1.29175e-05
1.26905e-05
1.23957e-05
1.19479e-05
1.15418e-05
1.13641e-05
1.12232e-05
1.08349e-05
1.03879e-05
1.02046e-05
9.99541e-06
9.75861e-06
9.44106e-06
9.16202e-06
8.83192e-06
8.63692e-06
8.34424e-06
8.02537e-06
7.7584e-06
7.54923e-06
7.20149e-06
6.91434e-06
6.73508e-06
6.49582e-06
6.12763e-06
5.94274e-06
5.74001e-06
5.43561e-06
5.16114e-06
4.94405e-06
4.65321e-06
4.37596e-06
4.05586e-06
3.74027e-06
3.53416e-06
3.36543e-06
3.2044e-06
3.01001e-06
2.80083e-06
2.58736e-06
2.47333e-06
2.42837e-06
2.40781e-06
2.37001e-06
2.30071e-06
2.17039e-06
1.97881e-06
1.64677e-06
1.23262e-06
9.54701e-07
7.76747e-07
6.13805e-07
5.63597e-07
5.53716e-07
5.93875e-07
5.99685e-07
7.00911e-07
9.50568e-07
1.08054e-06
8.92783e-07
6.87865e-07
1.04394e-06
1.83846e-06
2.3659e-06
2.77289e-06
2.99954e-06
3.34599e-06
3.55977e-06
3.97437e-06
4.64654e-06
4.96258e-06
9.45999e-06
1.99016e-05
2.41645e-05
2.70234e-05
3.03193e-05
5.34489e-06
1.22974e-05
3.77651e-05
2.71501e-05
8.68644e-06
1.21042e-06
2.69082e-07
8.39597e-08
3.239e-08
3.08491e-08
2.54063e-08
2.67437e-08
2.90057e-08
2.9076e-08
2.87671e-08
2.8456e-08
2.83026e-08
2.80052e-08
2.80722e-08
2.81246e-08
2.79886e-08
2.79994e-08
2.79121e-08
2.79518e-08
2.79791e-08
2.80731e-08
2.803e-08
2.80375e-08
2.80725e-08
2.79648e-08
2.79523e-08
2.79206e-08
2.7983e-08
2.79811e-08
2.81451e-08
2.80643e-08
2.8009e-08
2.83292e-08
2.8473e-08
2.8756e-08
2.90413e-08
2.95749e-08
3.06644e-08
3.12538e-08
2.45374e-08
2.57411e-08
3.69929e-08
3.95713e-08
2.86769e-07
1.95158e-06
8.39166e-06
1.51608e-05
6.78099e-06
4.99754e-06
1.34697e-05
1.03302e-05
1.20116e-05
1.18941e-05
1.18909e-05
1.21534e-05
1.18401e-05
1.29668e-05
1.21776e-05
1.3688e-05
1.2861e-05
1.44748e-05
1.38169e-05
1.52775e-05
1.49853e-05
1.62082e-05
1.60785e-05
1.72197e-05
1.69212e-05
1.80407e-05
1.74806e-05
1.85117e-05
1.77271e-05
1.86021e-05
1.76828e-05
1.82667e-05
1.72136e-05
1.73355e-05
1.61631e-05
1.5937e-05
1.4606e-05
1.38535e-05
1.2334e-05
1.13394e-05
9.98566e-06
9.45862e-06
9.30173e-06
1.02837e-05
1.19835e-05
1.3924e-05
1.54751e-05
1.69404e-05
1.82163e-05
1.94357e-05
2.00169e-05
2.03206e-05
2.01921e-05
1.98545e-05
1.90895e-05
1.81291e-05
1.7018e-05
1.63108e-05
1.61605e-05
1.53835e-05
1.34815e-05
1.42537e-05
1.90597e-05
1.98608e-05
1.54966e-05
1.39698e-05
1.99975e-05
2.14274e-05
1.80704e-05
1.74057e-05
2.11518e-05
2.15075e-05
1.91258e-05
1.97748e-05
2.19135e-05
2.05731e-05
1.98351e-05
2.14045e-05
2.09648e-05
2.01027e-05
2.11648e-05
2.07308e-05
2.05137e-05
2.08637e-05
2.08832e-05
2.05534e-05
2.08634e-05
2.05816e-05
2.06946e-05
2.05812e-05
2.05572e-05
2.0434e-05
2.03946e-05
2.03386e-05
2.03638e-05
2.02805e-05
2.02423e-05
2.01542e-05
2.00509e-05
1.99354e-05
1.97973e-05
1.96214e-05
1.947e-05
1.92498e-05
1.91096e-05
1.88598e-05
1.86938e-05
1.84898e-05
1.82633e-05
1.8091e-05
1.78864e-05
1.77016e-05
1.75114e-05
1.73128e-05
1.71275e-05
1.69366e-05
1.67591e-05
1.6559e-05
1.63746e-05
1.61608e-05
1.5978e-05
1.57778e-05
1.56066e-05
1.53909e-05
1.52005e-05
1.49705e-05
1.47629e-05
1.45232e-05
1.43023e-05
1.40441e-05
1.37981e-05
1.35135e-05
1.32276e-05
1.28916e-05
1.25421e-05
1.21287e-05
1.16981e-05
1.12076e-05
1.06817e-05
1.00047e-05
9.18606e-06
8.26132e-06
7.47365e-06
6.87313e-06
6.23496e-06
5.01772e-06
3.33538e-06
2.17757e-06
2.37895e-06
2.67278e-06
1.70436e-06
5.49761e-08
1.21042e-13
4.58309e-08
2.3967e-10
1.84777e-09
2.26493e-08
2.70464e-08
1.95704e-08
1.69016e-08
3.20275e-08
7.3592e-08
1.33035e-07
2.40226e-08
2.95593e-08
3.85146e-09
6.0741e-08
8.41378e-08
3.23635e-12
5.80631e-07
1.81354e-06
2.57527e-06
7.87094e-07
4.58761e-07
3.32306e-06
6.03892e-06
7.08494e-06
7.5343e-06
8.82452e-06
1.054e-05
1.22337e-05
1.35703e-05
1.4802e-05
1.58196e-05
1.67089e-05
1.73822e-05
1.80246e-05
1.85302e-05
1.90153e-05
1.93606e-05
1.969e-05
1.98883e-05
2.01167e-05
2.02575e-05
2.04438e-05
2.05547e-05
2.07039e-05
2.07897e-05
2.093e-05
2.10144e-05
2.11612e-05
2.12558e-05
2.14043e-05
2.14982e-05
2.1612e-05
2.16787e-05
2.1796e-05
2.18427e-05
2.19686e-05
2.19839e-05
2.21143e-05
2.21635e-05
2.2325e-05
2.23993e-05
2.25807e-05
2.26436e-05
2.28277e-05
2.28456e-05
2.30419e-05
2.30251e-05
2.32563e-05
2.32285e-05
2.34974e-05
2.34363e-05
2.37674e-05
2.36257e-05
2.40272e-05
2.37318e-05
2.42973e-05
2.41008e-05
2.31484e-05
2.3606e-05
2.39824e-05
2.38666e-05
2.35208e-05
2.30896e-05
2.28813e-05
2.25265e-05
2.2413e-05
2.21709e-05
2.20243e-05
2.19047e-05
2.16882e-05
2.16463e-05
2.14004e-05
2.13349e-05
2.11126e-05
2.08886e-05
2.08661e-05
2.0539e-05
2.05297e-05
2.01638e-05
2.00645e-05
2.02961e-05
2.00396e-05
1.99537e-05
2.00023e-05
1.99474e-05
1.95307e-05
1.98687e-05
1.96854e-05
1.92275e-05
1.91858e-05
1.94605e-05
1.88603e-05
1.84501e-05
1.8837e-05
1.87795e-05
1.78344e-05
1.79811e-05
1.81672e-05
1.76443e-05
1.71811e-05
1.7119e-05
1.66945e-05
1.62547e-05
1.56867e-05
1.49813e-05
1.46205e-05
1.47978e-05
1.50449e-05
1.51136e-05
1.48918e-05
1.44975e-05
1.41552e-05
1.39046e-05
1.37822e-05
1.36468e-05
1.35072e-05
1.32423e-05
1.29313e-05
1.23498e-05
1.11515e-05
9.42616e-06
7.83169e-06
6.29858e-06
5.23651e-06
4.65829e-06
4.6493e-06
5.02974e-06
5.87395e-06
7.31259e-06
8.40744e-06
8.46831e-06
8.27823e-06
8.71447e-06
1.0833e-05
1.29139e-05
1.4732e-05
1.59775e-05
1.73513e-05
1.83159e-05
1.952e-05
2.09421e-05
2.32721e-05
3.06162e-05
3.77496e-05
4.42458e-05
4.53494e-05
3.24626e-05
8.96312e-06
2.87248e-05
5.43734e-05
3.81057e-05
1.33533e-05
3.58153e-06
7.45948e-07
2.5069e-07
3.29849e-08
3.11797e-08
4.06033e-08
3.22825e-08
2.94733e-08
2.90074e-08
2.86581e-08
2.84001e-08
2.82657e-08
2.79834e-08
2.80574e-08
2.81439e-08
2.79379e-08
2.79931e-08
2.78894e-08
2.79851e-08
2.79446e-08
2.80846e-08
2.80394e-08
2.80451e-08
2.80851e-08
2.79477e-08
2.79817e-08
2.7884e-08
2.79864e-08
2.79495e-08
2.81298e-08
2.80337e-08
2.79883e-08
2.82385e-08
2.8374e-08
2.86122e-08
2.90425e-08
2.91537e-08
2.94984e-08
3.49504e-08
3.73768e-08
3.52557e-08
1.07411e-07
1.64037e-07
7.11238e-08
8.8371e-11
8.46925e-07
4.65313e-06
4.17377e-06
6.55753e-06
1.23159e-05
1.20331e-05
1.42552e-05
1.42922e-05
1.5082e-05
1.55527e-05
1.61182e-05
1.71556e-05
1.76024e-05
1.90555e-05
1.9528e-05
2.12019e-05
2.19279e-05
2.3523e-05
2.46177e-05
2.60061e-05
2.72021e-05
2.84198e-05
2.93119e-05
3.03209e-05
3.06604e-05
3.13011e-05
3.10322e-05
3.119e-05
3.02221e-05
2.96473e-05
2.79591e-05
2.64728e-05
2.40008e-05
2.17883e-05
1.86834e-05
1.58852e-05
1.28173e-05
1.04017e-05
8.47066e-06
8.27034e-06
9.76744e-06
1.31993e-05
1.70368e-05
2.03678e-05
2.34997e-05
2.70919e-05
3.08128e-05
3.42082e-05
3.5768e-05
3.60815e-05
3.49849e-05
3.28255e-05
2.96701e-05
2.65389e-05
2.45681e-05
2.48327e-05
2.56976e-05
2.35991e-05
2.02878e-05
2.37619e-05
3.25553e-05
3.15782e-05
2.20463e-05
2.29124e-05
3.55373e-05
3.63197e-05
2.73059e-05
2.76959e-05
3.64028e-05
3.59465e-05
2.9258e-05
3.16399e-05
3.64246e-05
3.1979e-05
3.01975e-05
3.38653e-05
3.19378e-05
2.95934e-05
3.18959e-05
3.0242e-05
2.946e-05
2.99375e-05
2.94557e-05
2.83327e-05
2.86866e-05
2.75576e-05
2.7432e-05
2.67237e-05
2.62587e-05
2.55531e-05
2.50245e-05
2.44616e-05
2.41359e-05
2.36747e-05
2.33283e-05
2.28942e-05
2.24918e-05
2.21039e-05
2.1692e-05
2.12924e-05
2.08949e-05
2.05069e-05
2.01257e-05
1.96909e-05
1.93539e-05
1.89238e-05
1.85609e-05
1.81811e-05
1.78312e-05
1.74369e-05
1.70745e-05
1.66849e-05
1.63098e-05
1.59171e-05
1.55246e-05
1.50968e-05
1.46628e-05
1.42075e-05
1.37815e-05
1.33431e-05
1.2923e-05
1.24439e-05
1.19821e-05
1.1454e-05
1.09426e-05
1.03823e-05
9.80701e-06
9.15344e-06
8.48357e-06
7.74316e-06
6.98723e-06
6.15765e-06
5.33589e-06
4.51875e-06
3.8304e-06
3.17374e-06
2.58222e-06
1.97823e-06
1.43592e-06
7.74511e-07
3.14844e-07
2.41872e-07
3.27594e-07
8.92673e-08
8.54663e-09
2.71833e-08
4.26921e-08
2.87288e-09
9.85365e-09
6.31814e-08
6.34073e-08
3.79256e-08
8.91495e-08
9.25803e-08
7.81674e-08
6.39749e-08
5.98204e-08
6.19631e-08
6.83423e-08
3.5397e-08
1.43959e-08
4.25285e-08
8.13732e-08
6.22397e-08
1.97325e-08
1.77961e-08
4.97122e-08
2.67607e-08
1.31837e-08
5.17944e-08
4.20465e-08
1.31026e-08
5.89805e-08
2.35189e-07
1.82605e-07
9.3448e-08
2.52254e-07
6.1072e-07
9.60328e-07
1.36983e-06
2.074e-06
2.88068e-06
3.56723e-06
4.21023e-06
4.99303e-06
5.90774e-06
6.93728e-06
7.9867e-06
9.04815e-06
1.00203e-05
1.09538e-05
1.18175e-05
1.26445e-05
1.33976e-05
1.40977e-05
1.46965e-05
1.52953e-05
1.58267e-05
1.63178e-05
1.68193e-05
1.7324e-05
1.78448e-05
1.83044e-05
1.87794e-05
1.92278e-05
1.9643e-05
2.0086e-05
2.04469e-05
2.08171e-05
2.11451e-05
2.15007e-05
2.1856e-05
2.22732e-05
2.26538e-05
2.30976e-05
2.34128e-05
2.38408e-05
2.40863e-05
2.45151e-05
2.47725e-05
2.52016e-05
2.54548e-05
2.59012e-05
2.61411e-05
2.65431e-05
2.65912e-05
2.73027e-05
2.74167e-05
2.63124e-05
2.82844e-05
2.94963e-05
2.96268e-05
2.96245e-05
2.92577e-05
2.93624e-05
2.90002e-05
2.91582e-05
2.90048e-05
2.90401e-05
2.91129e-05
2.90193e-05
2.92769e-05
2.91183e-05
2.92948e-05
2.92788e-05
2.91786e-05
2.95724e-05
2.9234e-05
2.9816e-05
2.95541e-05
2.97346e-05
3.09495e-05
3.08939e-05
3.1252e-05
3.21022e-05
3.26771e-05
3.19947e-05
3.38536e-05
3.41836e-05
3.33681e-05
3.39103e-05
3.58595e-05
3.46048e-05
3.37273e-05
3.58636e-05
3.6723e-05
3.39569e-05
3.4791e-05
3.62176e-05
3.53339e-05
3.4028e-05
3.41996e-05
3.35295e-05
3.25695e-05
3.13056e-05
2.93762e-05
2.80691e-05
2.86913e-05
2.98107e-05
3.05018e-05
3.05252e-05
2.98753e-05
2.90163e-05
2.83572e-05
2.81202e-05
2.80255e-05
2.79621e-05
2.76476e-05
2.71761e-05
2.62155e-05
2.49858e-05
2.31937e-05
2.10044e-05
1.83514e-05
1.57858e-05
1.31139e-05
1.08429e-05
9.18624e-06
9.28889e-06
1.07903e-05
1.27151e-05
1.40584e-05
1.52327e-05
1.74688e-05
2.09551e-05
2.35832e-05
2.62152e-05
2.85532e-05
3.07988e-05
3.25951e-05
3.42464e-05
3.57775e-05
3.7255e-05
3.91749e-05
4.61277e-05
5.16711e-05
4.91414e-05
3.71355e-05
3.07792e-05
5.09264e-05
7.06342e-05
4.7926e-05
1.78217e-05
3.86948e-06
3.41473e-07
1.03618e-08
8.81087e-08
3.22018e-08
2.70093e-08
3.14151e-08
3.04454e-08
2.91309e-08
2.87792e-08
2.84142e-08
2.82907e-08
2.80079e-08
2.80609e-08
2.8136e-08
2.79808e-08
2.79832e-08
2.79157e-08
2.79478e-08
2.79641e-08
2.80702e-08
2.80345e-08
2.80241e-08
2.80598e-08
2.79798e-08
2.79429e-08
2.79267e-08
2.79934e-08
2.79811e-08
2.81293e-08
2.80586e-08
2.79822e-08
2.83131e-08
2.84854e-08
2.87396e-08
2.9073e-08
2.90561e-08
2.67414e-08
2.46987e-08
3.44781e-08
3.54887e-08
6.81788e-09
4.97444e-09
4.15991e-10
1.27164e-09
8.83816e-13
6.49855e-07
4.70203e-06
8.45027e-06
1.13638e-05
1.39697e-05
1.56163e-05
1.68278e-05
1.79049e-05
1.89356e-05
1.99563e-05
2.12739e-05
2.23616e-05
2.40167e-05
2.52237e-05
2.71346e-05
2.85134e-05
3.04501e-05
3.20382e-05
3.3756e-05
3.53348e-05
3.67622e-05
3.79115e-05
3.89285e-05
3.93333e-05
3.96803e-05
3.92261e-05
3.86644e-05
3.71282e-05
3.5425e-05
3.28085e-05
2.9817e-05
2.60647e-05
2.21516e-05
1.76453e-05
1.3344e-05
9.32971e-06
6.27988e-06
5.0471e-06
6.99853e-06
1.15056e-05
1.62841e-05
2.02201e-05
2.40815e-05
2.86586e-05
3.41288e-05
3.96771e-05
4.4303e-05
4.61792e-05
4.5887e-05
4.33732e-05
3.92504e-05
3.43692e-05
3.05711e-05
2.98152e-05
3.21552e-05
3.27824e-05
2.85365e-05
2.53212e-05
3.23186e-05
4.2439e-05
3.8063e-05
2.64303e-05
3.11197e-05
4.72543e-05
4.53356e-05
3.29956e-05
3.54507e-05
4.71038e-05
4.47068e-05
3.53487e-05
3.9619e-05
4.55179e-05
3.84123e-05
3.63771e-05
4.13513e-05
3.78877e-05
3.4715e-05
3.78395e-05
3.50831e-05
3.39278e-05
3.43483e-05
3.33044e-05
3.16742e-05
3.19997e-05
3.01554e-05
2.98293e-05
2.86225e-05
2.78305e-05
2.67043e-05
2.58401e-05
2.49009e-05
2.43302e-05
2.36165e-05
2.31146e-05
2.24239e-05
2.18916e-05
2.13043e-05
2.07508e-05
2.01902e-05
1.96294e-05
1.91103e-05
1.85355e-05
1.79865e-05
1.74578e-05
1.69108e-05
1.63708e-05
1.58406e-05
1.53586e-05
1.47766e-05
1.42867e-05
1.37014e-05
1.31731e-05
1.25831e-05
1.20197e-05
1.1363e-05
1.07048e-05
9.98155e-06
9.28413e-06
8.55344e-06
7.838e-06
7.04334e-06
6.26501e-06
5.41588e-06
4.65021e-06
3.94975e-06
3.30513e-06
2.62569e-06
2.01328e-06
1.47144e-06
1.03547e-06
6.11307e-07
3.27869e-07
1.38901e-07
1.0559e-07
6.58509e-08
4.9563e-08
2.88226e-08
3.13055e-08
2.42367e-08
2.66827e-08
2.05543e-08
3.37636e-08
2.43929e-08
3.29477e-08
3.28068e-08
3.66093e-08
4.72411e-08
5.79488e-08
3.06611e-08
4.74846e-08
4.68373e-08
3.13315e-08
2.14673e-08
2.91529e-08
2.50193e-08
4.16515e-08
4.59319e-08
4.22686e-08
5.22859e-08
1.03124e-07
3.46518e-08
2.29084e-08
2.49378e-08
3.38696e-08
2.04732e-08
1.78707e-08
1.45724e-08
1.31001e-08
1.26129e-08
8.35443e-09
5.54243e-09
6.12241e-09
8.15637e-09
7.33194e-09
7.42391e-09
9.96402e-09
1.34115e-08
1.58899e-08
1.6993e-08
1.94127e-08
3.31528e-08
3.99115e-08
5.33884e-08
9.53078e-08
2.02114e-07
4.04015e-07
7.69132e-07
1.2512e-06
1.8549e-06
2.44562e-06
3.13278e-06
3.92991e-06
4.82159e-06
5.72345e-06
6.6147e-06
7.5747e-06
8.55863e-06
9.47015e-06
1.04271e-05
1.13397e-05
1.22865e-05
1.30906e-05
1.39242e-05
1.46704e-05
1.54018e-05
1.6119e-05
1.67781e-05
1.73865e-05
1.79887e-05
1.85512e-05
1.91623e-05
1.97787e-05
2.04305e-05
2.10605e-05
2.16303e-05
2.22166e-05
2.27033e-05
2.32592e-05
2.37964e-05
2.43108e-05
2.48875e-05
2.53602e-05
2.60089e-05
2.62834e-05
2.68371e-05
2.72809e-05
2.79589e-05
2.76809e-05
2.94227e-05
3.07762e-05
3.07873e-05
3.1067e-05
3.08138e-05
3.12417e-05
3.09444e-05
3.13496e-05
3.13144e-05
3.15116e-05
3.1723e-05
3.17737e-05
3.22174e-05
3.2207e-05
3.24366e-05
3.26829e-05
3.2662e-05
3.33644e-05
3.29648e-05
3.397e-05
3.39856e-05
3.42803e-05
3.61911e-05
3.63599e-05
3.69201e-05
3.83656e-05
3.96854e-05
3.86651e-05
4.14794e-05
4.26517e-05
4.17035e-05
4.22764e-05
4.58622e-05
4.47773e-05
4.30984e-05
4.64455e-05
4.90709e-05
4.50741e-05
4.58617e-05
4.88781e-05
4.84405e-05
4.63514e-05
4.66731e-05
4.61807e-05
4.50215e-05
4.34717e-05
4.10977e-05
3.88043e-05
3.89028e-05
4.04496e-05
4.19582e-05
4.26436e-05
4.22045e-05
4.11401e-05
4.00629e-05
3.9504e-05
3.93362e-05
3.93731e-05
3.92164e-05
3.88451e-05
3.79464e-05
3.67453e-05
3.51127e-05
3.31676e-05
3.06766e-05
2.80635e-05
2.5116e-05
2.23235e-05
1.91155e-05
1.64052e-05
1.54813e-05
1.66508e-05
1.83813e-05
2.03233e-05
2.3116e-05
2.72246e-05
3.14819e-05
3.53975e-05
3.83154e-05
4.10696e-05
4.3374e-05
4.55846e-05
4.7172e-05
4.86817e-05
4.97484e-05
5.17176e-05
5.511e-05
5.22345e-05
4.59708e-05
4.56301e-05
6.4346e-05
8.11971e-05
5.49119e-05
2.10677e-05
5.06896e-06
3.49876e-08
3.99519e-10
1.75458e-08
4.41503e-08
2.61479e-08
2.59183e-08
2.88958e-08
2.90262e-08
2.86328e-08
2.8432e-08
2.82824e-08
2.80074e-08
2.80626e-08
2.81365e-08
2.79393e-08
2.79956e-08
2.78945e-08
2.79863e-08
2.79475e-08
2.80886e-08
2.80371e-08
2.80476e-08
2.80868e-08
2.79238e-08
2.79803e-08
2.78853e-08
2.79985e-08
2.79472e-08
2.81431e-08
2.80268e-08
2.80037e-08
2.82748e-08
2.8367e-08
2.86455e-08
2.90984e-08
2.99238e-08
3.03304e-08
2.61245e-08
2.17771e-08
3.56582e-08
2.8962e-08
3.30003e-08
2.39897e-07
3.98147e-07
3.93491e-07
1.55228e-06
4.45901e-06
8.77861e-06
1.13563e-05
1.52213e-05
1.70837e-05
1.90489e-05
2.06118e-05
2.20915e-05
2.36797e-05
2.52093e-05
2.6917e-05
2.86753e-05
3.05033e-05
3.24585e-05
3.43612e-05
3.63741e-05
3.82432e-05
4.00751e-05
4.17224e-05
4.31195e-05
4.4225e-05
4.49601e-05
4.51356e-05
4.49429e-05
4.39729e-05
4.25281e-05
4.01421e-05
3.7251e-05
3.34828e-05
2.90242e-05
2.39508e-05
1.84824e-05
1.27533e-05
7.40039e-06
3.26844e-06
1.57957e-06
4.47627e-06
9.78104e-06
1.44988e-05
1.75828e-05
2.11571e-05
2.62757e-05
3.24332e-05
3.96363e-05
4.63441e-05
5.13049e-05
5.28364e-05
5.13805e-05
4.71904e-05
4.13108e-05
3.55763e-05
3.27633e-05
3.49198e-05
3.88166e-05
3.73885e-05
3.13058e-05
2.99617e-05
4.06926e-05
4.98579e-05
4.16124e-05
3.00212e-05
3.919e-05
5.66346e-05
5.1122e-05
3.69031e-05
4.19935e-05
5.53446e-05
5.03201e-05
3.92515e-05
4.55421e-05
5.16089e-05
4.19864e-05
4.01848e-05
4.60022e-05
4.08492e-05
3.72087e-05
4.09249e-05
3.70098e-05
3.55612e-05
3.58205e-05
3.41549e-05
3.21493e-05
3.23797e-05
2.98642e-05
2.93723e-05
2.7718e-05
2.66925e-05
2.52559e-05
2.41791e-05
2.29631e-05
2.22053e-05
2.12798e-05
2.07311e-05
1.9836e-05
1.92404e-05
1.84896e-05
1.78299e-05
1.71293e-05
1.64139e-05
1.57713e-05
1.50025e-05
1.4346e-05
1.35984e-05
1.29637e-05
1.21977e-05
1.15504e-05
1.08952e-05
1.01202e-05
9.45992e-06
8.62191e-06
7.88587e-06
7.01981e-06
6.24536e-06
5.31727e-06
4.48479e-06
3.61693e-06
2.9506e-06
2.31625e-06
1.85714e-06
1.32635e-06
9.71851e-07
4.7233e-07
2.96393e-07
1.88811e-07
1.241e-07
5.42793e-08
6.39853e-08
3.86395e-08
4.84e-08
2.73273e-08
4.30835e-08
1.99608e-08
4.42837e-08
2.14817e-08
4.3814e-08
2.81631e-08
4.66266e-08
3.33479e-08
5.09671e-08
3.57375e-08
5.25246e-08
3.8003e-08
4.69565e-08
3.43246e-08
4.0624e-08
3.21682e-08
3.74996e-08
3.56788e-08
3.57766e-08
3.11008e-08
5.06674e-08
5.95394e-08
6.1744e-08
6.23444e-08
4.86931e-08
3.69804e-08
5.66325e-08
3.06642e-08
2.20775e-08
5.5464e-08
5.22037e-08
2.98845e-08
3.26085e-08
3.19713e-08
3.5911e-08
2.87915e-08
2.82164e-08
2.8105e-08
2.96979e-08
3.09607e-08
2.6985e-08
2.49214e-08
2.23834e-08
2.0427e-08
1.8827e-08
1.60288e-08
1.52087e-08
1.63773e-08
1.56284e-08
2.09978e-08
1.81724e-08
2.04139e-08
1.80132e-08
2.0528e-08
1.74658e-08
2.60309e-08
2.53694e-08
4.11771e-08
4.79049e-08
8.36541e-08
8.39908e-08
2.42963e-07
4.28082e-07
6.48059e-07
1.03573e-06
1.74686e-06
2.25052e-06
3.01144e-06
3.81064e-06
4.87407e-06
5.78203e-06
6.87404e-06
7.91568e-06
9.00777e-06
1.00642e-05
1.1067e-05
1.19406e-05
1.28363e-05
1.36071e-05
1.44766e-05
1.52861e-05
1.62009e-05
1.70085e-05
1.78169e-05
1.8553e-05
1.92533e-05
1.99363e-05
2.07137e-05
2.13526e-05
2.21834e-05
2.27839e-05
2.36948e-05
2.40534e-05
2.48186e-05
2.53724e-05
2.62291e-05
2.68413e-05
2.84674e-05
2.94776e-05
2.92319e-05
2.97311e-05
2.95745e-05
3.0316e-05
3.01081e-05
3.07492e-05
3.08472e-05
3.12217e-05
3.1518e-05
3.17704e-05
3.22987e-05
3.25474e-05
3.26754e-05
3.32647e-05
3.3254e-05
3.42722e-05
3.38055e-05
3.51493e-05
3.5568e-05
3.58738e-05
3.83654e-05
3.88586e-05
3.94473e-05
4.13066e-05
4.35819e-05
4.2195e-05
4.55506e-05
4.78457e-05
4.70679e-05
4.71895e-05
5.22352e-05
5.21394e-05
4.953e-05
5.32198e-05
5.80861e-05
5.38783e-05
5.37768e-05
5.79712e-05
5.88058e-05
5.63852e-05
5.65151e-05
5.6421e-05
5.5461e-05
5.39612e-05
5.16991e-05
4.88809e-05
4.79958e-05
4.91887e-05
5.1062e-05
5.24276e-05
5.25895e-05
5.17807e-05
5.05551e-05
4.96156e-05
4.91388e-05
4.90639e-05
4.90025e-05
4.88212e-05
4.8195e-05
4.72491e-05
4.58722e-05
4.41961e-05
4.20059e-05
3.96307e-05
3.68819e-05
3.41892e-05
3.12125e-05
2.80049e-05
2.45945e-05
2.26804e-05
2.26781e-05
2.41311e-05
2.67554e-05
3.07512e-05
3.55654e-05
4.06178e-05
4.5209e-05
4.93449e-05
5.26593e-05
5.55251e-05
5.73773e-05
5.92385e-05
5.90785e-05
5.93089e-05
5.86041e-05
5.65891e-05
5.37786e-05
5.40763e-05
6.96096e-05
8.60715e-05
5.95315e-05
2.42829e-05
7.55794e-06
2.48762e-06
3.01087e-07
1.31131e-09
1.18674e-08
3.32094e-08
3.05492e-08
2.93382e-08
2.89827e-08
2.8838e-08
2.83849e-08
2.82978e-08
2.7998e-08
2.80509e-08
2.81371e-08
2.79806e-08
2.79741e-08
2.79211e-08
2.79512e-08
2.7959e-08
2.80721e-08
2.80321e-08
2.80201e-08
2.80572e-08
2.79757e-08
2.79448e-08
2.79273e-08
2.79805e-08
2.79706e-08
2.81324e-08
2.80594e-08
2.80118e-08
2.832e-08
2.84807e-08
2.86809e-08
2.91694e-08
2.97084e-08
3.20714e-08
3.62722e-08
2.89071e-08
2.53762e-08
6.62877e-08
6.43118e-08
5.55595e-08
7.74867e-08
4.40974e-07
5.73602e-07
2.11185e-06
5.9935e-06
1.13423e-05
1.46638e-05
1.79457e-05
2.02965e-05
2.24597e-05
2.44922e-05
2.64314e-05
2.83797e-05
3.03908e-05
3.2389e-05
3.44848e-05
3.65629e-05
3.86294e-05
4.06795e-05
4.25686e-05
4.43434e-05
4.58244e-05
4.70177e-05
4.78071e-05
4.80895e-05
4.77862e-05
4.68927e-05
4.51923e-05
4.27662e-05
3.93924e-05
3.53033e-05
3.03245e-05
2.45443e-05
1.83275e-05
1.18144e-05
5.84556e-06
1.40363e-06
6.48225e-07
3.91318e-06
8.27188e-06
1.10043e-05
1.35297e-05
1.63604e-05
2.06305e-05
2.75087e-05
3.49613e-05
4.33667e-05
5.0426e-05
5.4943e-05
5.55449e-05
5.25249e-05
4.66602e-05
3.96185e-05
3.437e-05
3.44759e-05
4.00804e-05
4.33579e-05
3.89383e-05
3.24088e-05
3.44939e-05
4.81144e-05
5.43289e-05
4.27934e-05
3.30405e-05
4.64158e-05
6.32894e-05
5.41382e-05
3.92615e-05
4.70963e-05
6.10501e-05
5.31478e-05
4.11905e-05
4.94166e-05
5.48988e-05
4.30215e-05
4.17979e-05
4.80119e-05
4.11371e-05
3.7328e-05
4.14015e-05
3.63232e-05
3.46547e-05
3.46809e-05
3.23892e-05
3.01348e-05
3.02301e-05
2.71395e-05
2.65512e-05
2.4547e-05
2.34167e-05
2.17938e-05
2.06316e-05
1.92272e-05
1.83065e-05
1.72628e-05
1.6682e-05
1.56799e-05
1.50184e-05
1.41487e-05
1.33779e-05
1.25721e-05
1.16674e-05
1.09169e-05
9.89957e-06
9.09727e-06
8.0427e-06
7.25743e-06
6.18067e-06
5.45149e-06
4.64482e-06
3.84304e-06
3.21916e-06
2.48104e-06
1.96619e-06
1.36373e-06
1.04455e-06
5.27663e-07
3.21821e-07
1.36759e-07
1.04172e-07
5.87265e-08
5.06089e-08
3.13439e-08
4.51773e-08
2.03032e-08
3.26386e-08
2.55117e-08
3.07121e-08
2.31949e-08
3.5115e-08
1.97506e-08
3.71397e-08
2.09452e-08
4.71048e-08
2.47307e-08
5.30589e-08
2.61535e-08
4.65131e-08
2.59241e-08
4.00326e-08
2.78162e-08
3.60239e-08
2.74902e-08
3.24501e-08
2.83865e-08
3.40333e-08
3.48625e-08
4.06165e-08
4.06747e-08
4.25733e-08
4.25872e-08
4.80102e-08
5.04284e-08
4.07935e-08
3.37251e-08
3.13341e-08
3.11143e-08
3.85694e-08
5.0672e-08
4.60936e-08
5.95127e-08
6.94083e-08
3.2995e-08
3.27726e-08
3.53923e-08
2.55213e-08
1.94285e-08
1.7569e-08
1.62151e-08
1.2956e-08
1.09407e-08
8.20098e-09
8.70523e-09
8.08558e-09
1.00336e-08
9.0486e-09
1.11833e-08
1.08067e-08
1.36517e-08
1.18413e-08
1.4254e-08
1.05239e-08
1.30318e-08
9.99156e-09
1.41791e-08
1.11123e-08
1.60469e-08
1.11552e-08
1.70321e-08
9.03312e-09
1.70105e-08
8.62354e-09
1.98716e-08
1.17226e-08
2.01136e-08
1.99677e-08
2.90501e-08
1.81015e-08
5.46447e-08
4.3509e-08
7.17335e-08
8.01672e-08
3.88791e-07
4.75505e-07
9.60662e-07
1.47905e-06
2.26005e-06
3.03654e-06
3.90245e-06
4.72307e-06
5.74052e-06
6.64734e-06
7.78461e-06
8.86505e-06
1.01145e-05
1.11828e-05
1.22474e-05
1.31731e-05
1.40506e-05
1.48921e-05
1.58467e-05
1.66778e-05
1.7673e-05
1.85144e-05
1.95595e-05
2.01612e-05
2.09496e-05
2.17386e-05
2.26932e-05
2.42734e-05
2.57406e-05
2.6323e-05
2.56726e-05
2.6282e-05
2.61452e-05
2.71539e-05
2.70225e-05
2.78712e-05
2.80878e-05
2.86663e-05
2.89745e-05
2.9501e-05
2.99925e-05
3.06193e-05
3.05159e-05
3.15026e-05
3.14298e-05
3.28009e-05
3.22437e-05
3.38456e-05
3.47877e-05
3.50368e-05
3.79536e-05
3.88907e-05
3.93935e-05
4.13843e-05
4.47883e-05
4.3108e-05
4.65324e-05
5.00735e-05
4.99074e-05
4.91769e-05
5.5265e-05
5.69096e-05
5.35874e-05
5.66624e-05
6.38177e-05
6.06004e-05
5.91524e-05
6.37761e-05
6.63602e-05
6.4308e-05
6.4057e-05
6.43268e-05
6.38635e-05
6.26883e-05
6.08563e-05
5.80855e-05
5.63516e-05
5.66925e-05
5.83446e-05
6.00932e-05
6.09148e-05
6.06603e-05
5.96332e-05
5.84947e-05
5.76379e-05
5.72377e-05
5.70583e-05
5.69406e-05
5.65549e-05
5.59066e-05
5.48576e-05
5.35047e-05
5.16686e-05
4.95964e-05
4.71431e-05
4.46312e-05
4.18709e-05
3.9034e-05
3.57382e-05
3.23625e-05
2.95915e-05
2.8525e-05
2.94318e-05
3.23314e-05
3.67304e-05
4.19804e-05
4.73906e-05
5.25588e-05
5.71256e-05
6.10431e-05
6.40663e-05
6.63947e-05
6.71397e-05
6.69036e-05
6.39794e-05
6.02857e-05
5.92107e-05
5.86603e-05
6.90674e-05
8.54351e-05
6.19769e-05
2.81909e-05
9.43666e-06
3.89418e-06
1.39679e-06
3.08292e-07
2.69041e-08
2.52714e-08
3.05559e-08
2.99672e-08
2.91255e-08
2.86679e-08
2.85036e-08
2.82964e-08
2.80035e-08
2.80525e-08
2.81382e-08
2.79408e-08
2.79811e-08
2.79014e-08
2.79819e-08
2.79432e-08
2.80797e-08
2.80354e-08
2.80472e-08
2.81117e-08
2.79442e-08
2.79829e-08
2.7882e-08
2.80129e-08
2.79377e-08
2.81482e-08
2.80257e-08
2.8004e-08
2.82702e-08
2.84118e-08
2.86148e-08
2.89636e-08
2.90644e-08
2.94163e-08
3.38192e-08
3.31608e-08
1.55307e-08
1.13361e-08
1.39913e-08
1.50355e-09
9.16162e-09
8.09457e-09
3.83764e-07
1.93128e-06
5.46407e-06
9.81457e-06
1.37523e-05
1.73773e-05
2.02419e-05
2.28741e-05
2.53687e-05
2.76011e-05
2.99722e-05
3.21131e-05
3.44024e-05
3.65615e-05
3.8727e-05
4.08125e-05
4.2764e-05
4.45601e-05
4.60852e-05
4.73142e-05
4.81027e-05
4.84519e-05
4.81348e-05
4.72165e-05
4.55028e-05
4.29731e-05
3.95156e-05
3.51359e-05
2.99122e-05
2.38663e-05
1.71399e-05
1.04516e-05
4.3231e-06
3.95507e-07
9.62528e-07
2.42117e-06
4.78772e-06
6.34112e-06
8.52095e-06
1.07046e-05
1.3985e-05
1.98759e-05
2.75723e-05
3.61361e-05
4.47696e-05
5.15919e-05
5.51343e-05
5.43136e-05
4.95245e-05
4.22249e-05
3.50141e-05
3.20658e-05
3.66689e-05
4.4178e-05
4.45221e-05
3.76216e-05
3.24544e-05
3.89038e-05
5.36522e-05
5.56855e-05
4.21224e-05
3.54534e-05
5.20957e-05
6.70915e-05
5.47746e-05
4.01214e-05
5.04664e-05
6.42128e-05
5.34835e-05
4.12436e-05
5.11732e-05
5.55495e-05
4.17346e-05
4.12753e-05
4.74993e-05
3.89718e-05
3.52079e-05
3.94225e-05
3.32363e-05
3.14117e-05
3.11672e-05
2.82948e-05
2.59159e-05
2.58687e-05
2.23517e-05
2.17595e-05
1.95352e-05
1.84292e-05
1.67246e-05
1.55526e-05
1.40008e-05
1.29766e-05
1.1872e-05
1.11998e-05
1.0137e-05
9.37653e-06
8.35089e-06
7.41218e-06
6.54323e-06
5.37488e-06
4.69004e-06
3.50035e-06
2.92898e-06
1.90776e-06
1.71245e-06
6.46957e-07
8.37722e-07
2.57376e-07
2.53329e-07
9.22331e-08
1.20066e-07
2.76803e-08
8.25846e-08
1.88339e-08
6.29224e-08
1.46641e-08
5.44495e-08
1.70375e-08
5.1916e-08
2.33444e-08
4.77999e-08
3.06309e-08
4.16451e-08
3.33666e-08
4.00577e-08
3.42117e-08
3.75107e-08
3.68559e-08
3.77595e-08
3.97776e-08
3.49287e-08
3.45873e-08
2.85011e-08
3.0592e-08
2.89702e-08
3.33382e-08
3.37142e-08
3.6236e-08
3.58898e-08
3.6337e-08
3.85205e-08
4.0999e-08
4.35926e-08
3.96656e-08
3.73444e-08
3.40423e-08
3.5247e-08
3.47464e-08
3.604e-08
3.34794e-08
3.32395e-08
3.79472e-08
4.62955e-08
5.46481e-08
5.52399e-08
5.47051e-08
4.09612e-08
4.45126e-08
2.58791e-08
3.63348e-08
4.56042e-08
4.00896e-08
3.5183e-08
3.84443e-08
3.62658e-08
3.30489e-08
3.1894e-08
3.13497e-08
3.32545e-08
3.02959e-08
2.75491e-08
2.2454e-08
2.23235e-08
1.89145e-08
1.90487e-08
1.57731e-08
1.70841e-08
1.52957e-08
1.87213e-08
1.71419e-08
2.00923e-08
1.6365e-08
1.92105e-08
1.50402e-08
1.87979e-08
1.46007e-08
2.15402e-08
1.51941e-08
2.3029e-08
1.47383e-08
1.99691e-08
1.2747e-08
1.72113e-08
1.12048e-08
1.69771e-08
7.9149e-09
2.12269e-08
8.49048e-09
3.20924e-08
4.46896e-09
5.4955e-08
8.98433e-09
3.8065e-08
2.9472e-08
5.09775e-08
9.6928e-08
1.96272e-07
2.14418e-07
6.80933e-07
8.60898e-07
1.55546e-06
2.16064e-06
3.209e-06
4.18342e-06
5.25216e-06
6.24463e-06
7.19265e-06
8.23369e-06