/*--------------------------------*- C++ -*----------------------------------*\
| =========                 |                                                 |
| \\      /  F ield         | OpenFOAM: The Open Source CFD Toolbox           |
|  \\    /   O peration     | Version:  v2006                                 |
|   \\  /    A nd           | Website:  www.openfoam.com                      |
|    \\/     M anipulation  |                                                 |
\*---------------------------------------------------------------------------*/
FoamFile
{
    version     2.0;
    format      ascii;
    class       volScalarField;
    location    "40";
    object      nuTilda;
}
// * * * * * * * * * * * * * * * * * * * * * * * * * * * * * * * * * * * * * //

dimensions      [0 2 -1 0 0 0 0];


internalField   nonuniform List<scalar> 
93840
(
3.97819e-07
3.97817e-07
3.97735e-07
3.97821e-07
3.97821e-07
3.97836e-07
3.97779e-07
3.97797e-07
3.97883e-07
3.97912e-07
3.97816e-07
3.98134e-07
3.98281e-07
3.99438e-07
4.01365e-07
4.03299e-07
3.98104e-07
4.03079e-07
3.58953e-07
4.71631e-08
2.49299e-07
7.60277e-07
5.07576e-06
1.8022e-05
2.66643e-05
8.50432e-06
3.50683e-06
1.58486e-05
8.56867e-06
1.38971e-05
1.32294e-05
1.18431e-05
1.35437e-05
1.17058e-05
1.2926e-05
1.19188e-05
1.24561e-05
1.20513e-05
1.21128e-05
1.21316e-05
1.19527e-05
1.21549e-05
1.19315e-05
1.21587e-05
1.19649e-05
1.21367e-05
1.19872e-05
1.20992e-05
1.19867e-05
1.19972e-05
1.19153e-05
1.18722e-05
1.17454e-05
1.16247e-05
1.15153e-05
1.14162e-05
1.12353e-05
1.10396e-05
1.07675e-05
1.05373e-05
1.02812e-05
1.00222e-05
9.78404e-06
9.69216e-06
9.62884e-06
9.7628e-06
9.98107e-06
1.02555e-05
1.04915e-05
1.0765e-05
1.10392e-05
1.12176e-05
1.1303e-05
1.12889e-05
1.11715e-05
1.09436e-05
1.06042e-05
1.01141e-05
9.63608e-06
9.43307e-06
9.41993e-06
9.13585e-06
9.22774e-06
1.06366e-05
1.15174e-05
1.06506e-05
1.00826e-05
1.1323e-05
1.2222e-05
1.16263e-05
1.14791e-05
1.22929e-05
1.26151e-05
1.22874e-05
1.24731e-05
1.30094e-05
1.29316e-05
1.29367e-05
1.33306e-05
1.34376e-05
1.34661e-05
1.37962e-05
1.39049e-05
1.42352e-05
1.4617e-05
1.47155e-05
1.47313e-05
1.5067e-05
1.5311e-05
1.56471e-05
1.59161e-05
1.62402e-05
1.65139e-05
1.69036e-05
1.72288e-05
1.75965e-05
1.78919e-05
1.82716e-05
1.85597e-05
1.88811e-05
1.91175e-05
1.93983e-05
1.95292e-05
1.97285e-05
1.97142e-05
1.96883e-05
1.97754e-05
1.95669e-05
1.96302e-05
1.95327e-05
1.93829e-05
1.93169e-05
1.91658e-05
1.91262e-05
1.90215e-05
1.89304e-05
1.88032e-05
1.87582e-05
1.86388e-05
1.86216e-05
1.85382e-05
1.84821e-05
1.83777e-05
1.83329e-05
1.82635e-05
1.82177e-05
1.81513e-05
1.81108e-05
1.80104e-05
1.79266e-05
1.7834e-05
1.77497e-05
1.76408e-05
1.75349e-05
1.74025e-05
1.72681e-05
1.71103e-05
1.69475e-05
1.67465e-05
1.65639e-05
1.63855e-05
1.61889e-05
1.5938e-05
1.56887e-05
1.54064e-05
1.50885e-05
1.46933e-05
1.42702e-05
1.37913e-05
1.32086e-05
1.23634e-05
1.07603e-05
7.18762e-06
1.85376e-06
1.93119e-06
7.30131e-06
3.5542e-06
3.28075e-07
4.7966e-07
1.16086e-06
5.21604e-07
5.28858e-07
1.36137e-07
6.28323e-07
8.18237e-07
7.10467e-07
3.18954e-07
3.09207e-06
6.04322e-06
5.41216e-07
4.19939e-06
1.84312e-05
1.98479e-05
1.55243e-05
1.9073e-05
2.46352e-05
2.78925e-05
2.93196e-05
2.97938e-05
2.99845e-05
2.98749e-05
2.97969e-05
2.96213e-05
2.95063e-05
2.93125e-05
2.91603e-05
2.89195e-05
2.87503e-05
2.84615e-05
2.82982e-05
2.80919e-05
2.79612e-05
2.77578e-05
2.76441e-05
2.74186e-05
2.72755e-05
2.70468e-05
2.69406e-05
2.67333e-05
2.66656e-05
2.65631e-05
2.65283e-05
2.63335e-05
2.6234e-05
2.59739e-05
2.5845e-05
2.56174e-05
2.55202e-05
2.52752e-05
2.51629e-05
2.50164e-05
2.51354e-05
2.50337e-05
2.51525e-05
2.49561e-05
2.49632e-05
2.47517e-05
2.47134e-05
2.45433e-05
2.4568e-05
2.44089e-05
2.44887e-05
2.43475e-05
2.44192e-05
2.42688e-05
2.42948e-05
2.41652e-05
2.42249e-05
2.39115e-05
2.36041e-05
2.31695e-05
2.05773e-05
1.59453e-05
1.3887e-05
1.3907e-05
1.41374e-05
1.4253e-05
1.43097e-05
1.4244e-05
1.41674e-05
1.40434e-05
1.38729e-05
1.3684e-05
1.34405e-05
1.32138e-05
1.29287e-05
1.27018e-05
1.24073e-05
1.19601e-05
1.15546e-05
1.13771e-05
1.12363e-05
1.08487e-05
1.04026e-05
1.02196e-05
1.00107e-05
9.77442e-06
9.45767e-06
9.17939e-06
8.85033e-06
8.65591e-06
8.36431e-06
8.04679e-06
7.78103e-06
7.57285e-06
7.22714e-06
6.94187e-06
6.76381e-06
6.52642e-06
6.16166e-06
5.97861e-06
5.77815e-06
5.47774e-06
5.20743e-06
4.99406e-06
4.70908e-06
4.43842e-06
4.12751e-06
3.82306e-06
3.62552e-06
3.46478e-06
3.31237e-06
3.12999e-06
2.93583e-06
2.74042e-06
2.63727e-06
2.59673e-06
2.57832e-06
2.54446e-06
2.48289e-06
2.36821e-06
2.20264e-06
1.92395e-06
1.59161e-06
1.37812e-06
1.24426e-06
1.12068e-06
1.08235e-06
1.07506e-06
1.10783e-06
1.11297e-06
1.19227e-06
1.38048e-06
1.47946e-06
1.33848e-06
1.18499e-06
1.45341e-06
2.08402e-06
2.54031e-06
2.90971e-06
3.11925e-06
3.44572e-06
3.64846e-06
4.0478e-06
4.70072e-06
5.01155e-06
9.47336e-06
1.99045e-05
2.41663e-05
2.70248e-05
3.03204e-05
5.37532e-06
1.23032e-05
3.77657e-05
2.71513e-05
8.69811e-06
1.50424e-06
7.59332e-07
5.2996e-07
4.07865e-07
4.02472e-07
3.82574e-07
3.89009e-07
3.9806e-07
3.99424e-07
3.98321e-07
3.98601e-07
3.98105e-07
3.979e-07
3.97887e-07
3.97823e-07
3.97859e-07
3.97829e-07
3.97811e-07
3.97801e-07
3.97872e-07
3.97803e-07
3.97788e-07
3.97799e-07
3.97793e-07
3.97813e-07
3.97809e-07
3.97799e-07
3.97818e-07
3.9781e-07
3.97896e-07
3.97877e-07
3.97936e-07
3.98149e-07
3.98508e-07
3.98429e-07
3.99284e-07
4.00113e-07
4.03274e-07
4.04082e-07
3.78874e-07
3.83787e-07
4.23059e-07
4.30897e-07
7.78267e-07
2.12558e-06
8.40424e-06
1.51647e-05
6.80037e-06
5.03374e-06
1.34748e-05
1.03388e-05
1.2018e-05
1.19006e-05
1.18974e-05
1.21596e-05
1.18466e-05
1.29722e-05
1.21837e-05
1.36928e-05
1.28664e-05
1.4479e-05
1.38215e-05
1.52813e-05
1.49892e-05
1.62116e-05
1.60819e-05
1.72226e-05
1.69242e-05
1.80434e-05
1.74834e-05
1.85142e-05
1.77298e-05
1.86046e-05
1.76855e-05
1.82693e-05
1.72165e-05
1.73384e-05
1.61664e-05
1.59403e-05
1.46099e-05
1.3858e-05
1.23396e-05
1.1346e-05
9.99412e-06
9.46805e-06
9.31145e-06
1.02917e-05
1.19894e-05
1.39284e-05
1.54786e-05
1.69434e-05
1.82189e-05
1.94379e-05
2.00191e-05
2.03227e-05
2.01942e-05
1.98567e-05
1.90919e-05
1.81317e-05
1.7021e-05
1.63141e-05
1.61639e-05
1.53872e-05
1.34863e-05
1.4258e-05
1.90621e-05
1.98631e-05
1.55003e-05
1.39744e-05
1.99997e-05
2.14294e-05
1.80732e-05
1.74087e-05
2.11539e-05
2.15095e-05
1.91283e-05
1.97772e-05
2.19154e-05
2.05754e-05
1.98376e-05
2.14066e-05
2.0967e-05
2.01052e-05
2.1167e-05
2.07332e-05
2.05162e-05
2.08661e-05
2.08857e-05
2.05559e-05
2.08659e-05
2.05842e-05
2.06972e-05
2.05839e-05
2.05599e-05
2.04368e-05
2.03974e-05
2.03414e-05
2.03666e-05
2.02835e-05
2.02453e-05
2.01573e-05
2.0054e-05
1.99386e-05
1.98005e-05
1.96247e-05
1.94733e-05
1.92531e-05
1.91129e-05
1.88631e-05
1.86971e-05
1.84932e-05
1.82668e-05
1.80944e-05
1.78899e-05
1.77051e-05
1.75149e-05
1.73163e-05
1.7131e-05
1.69401e-05
1.67626e-05
1.65626e-05
1.63782e-05
1.61645e-05
1.59817e-05
1.57815e-05
1.56103e-05
1.53947e-05
1.52044e-05
1.49744e-05
1.47669e-05
1.45273e-05
1.43064e-05
1.40484e-05
1.38025e-05
1.35179e-05
1.32322e-05
1.28964e-05
1.25471e-05
1.2134e-05
1.17037e-05
1.12136e-05
1.06882e-05
1.0012e-05
9.1947e-06
8.27186e-06
7.48635e-06
6.88794e-06
6.25267e-06
5.0445e-06
3.39304e-06
2.29716e-06
2.48117e-06
2.75518e-06
1.86943e-06
4.44342e-07
1.64831e-08
4.18868e-07
1.08887e-07
1.80836e-07
3.41394e-07
3.56044e-07
3.25091e-07
3.12346e-07
3.66475e-07
4.61454e-07
5.55709e-07
3.54956e-07
3.83328e-07
2.36173e-07
5.00139e-07
5.63177e-07
4.31162e-08
1.10531e-06
2.08562e-06
2.76062e-06
1.32279e-06
1.082e-06
3.46486e-06
6.08831e-06
7.12182e-06
7.5682e-06
8.84966e-06
1.05579e-05
1.22471e-05
1.35813e-05
1.48114e-05
1.58279e-05
1.67165e-05
1.73892e-05
1.80312e-05
1.85365e-05
1.90214e-05
1.93665e-05
1.96959e-05
1.98942e-05
2.01224e-05
2.02633e-05
2.04495e-05
2.05604e-05
2.07097e-05
2.07955e-05
2.09358e-05
2.10203e-05
2.11671e-05
2.12618e-05
2.14102e-05
2.15042e-05
2.16179e-05
2.16846e-05
2.18019e-05
2.18487e-05
2.19745e-05
2.19899e-05
2.21204e-05
2.21697e-05
2.23312e-05
2.24056e-05
2.25869e-05
2.26499e-05
2.28339e-05
2.28519e-05
2.30482e-05
2.30314e-05
2.32625e-05
2.32349e-05
2.35037e-05
2.34428e-05
2.37737e-05
2.36322e-05
2.40335e-05
2.37383e-05
2.43035e-05
2.41067e-05
2.31541e-05
2.36106e-05
2.39866e-05
2.38707e-05
2.35249e-05
2.30938e-05
2.28854e-05
2.25307e-05
2.24172e-05
2.2175e-05
2.20284e-05
2.19087e-05
2.16922e-05
2.16503e-05
2.14044e-05
2.13389e-05
2.11166e-05
2.08926e-05
2.087e-05
2.05429e-05
2.05336e-05
2.01678e-05
2.00684e-05
2.02999e-05
2.00435e-05
1.99576e-05
2.0006e-05
1.99511e-05
1.95345e-05
1.98724e-05
1.96891e-05
1.92314e-05
1.91896e-05
1.94641e-05
1.88641e-05
1.84541e-05
1.88408e-05
1.87833e-05
1.78385e-05
1.79852e-05
1.81712e-05
1.76485e-05
1.71855e-05
1.71234e-05
1.66991e-05
1.62595e-05
1.56919e-05
1.49869e-05
1.46264e-05
1.48035e-05
1.50505e-05
1.51191e-05
1.48974e-05
1.45034e-05
1.41614e-05
1.3911e-05
1.37887e-05
1.36534e-05
1.35139e-05
1.32493e-05
1.29387e-05
1.23578e-05
1.11613e-05
9.43972e-06
7.85123e-06
6.32855e-06
5.27954e-06
4.71217e-06
4.70351e-06
5.07639e-06
5.90863e-06
7.33513e-06
8.42461e-06
8.48524e-06
8.29601e-06
8.73052e-06
1.08435e-05
1.29213e-05
1.47376e-05
1.59823e-05
1.73554e-05
1.83195e-05
1.95233e-05
2.0945e-05
2.32744e-05
3.06175e-05
3.77505e-05
4.42464e-05
4.53499e-05
3.24637e-05
8.97561e-06
2.8726e-05
5.43737e-05
3.81063e-05
1.33584e-05
3.64413e-06
1.1457e-06
7.41123e-07
4.09881e-07
4.03682e-07
4.33271e-07
4.08893e-07
3.9979e-07
3.99104e-07
3.98543e-07
3.98483e-07
3.98037e-07
3.97893e-07
3.97899e-07
3.97856e-07
3.97814e-07
3.97836e-07
3.97817e-07
3.9781e-07
3.97793e-07
3.97812e-07
3.97799e-07
3.97807e-07
3.97816e-07
3.97798e-07
3.97808e-07
3.97808e-07
3.9782e-07
3.97835e-07
3.97811e-07
3.97867e-07
3.97939e-07
3.98036e-07
3.98435e-07
3.98328e-07
3.99192e-07
3.98668e-07
3.99263e-07
4.1625e-07
4.23621e-07
4.17208e-07
5.69497e-07
6.46147e-07
5.07623e-07
9.27324e-08
1.23952e-06
4.69331e-06
4.22304e-06
6.57851e-06
1.23218e-05
1.20395e-05
1.42596e-05
1.42967e-05
1.50859e-05
1.55565e-05
1.61217e-05
1.71587e-05
1.76053e-05
1.9058e-05
1.95303e-05
2.12039e-05
2.19297e-05
2.35246e-05
2.46191e-05
2.60074e-05
2.72033e-05
2.84209e-05
2.93129e-05
3.03218e-05
3.06614e-05
3.1302e-05
3.10331e-05
3.11908e-05
3.0223e-05
2.96483e-05
2.79602e-05
2.6474e-05
2.40023e-05
2.17901e-05
1.86858e-05
1.58885e-05
1.28224e-05
1.04095e-05
8.48239e-06
8.28263e-06
9.77625e-06
1.32041e-05
1.70397e-05
2.03699e-05
2.35012e-05
2.70931e-05
3.08137e-05
3.42089e-05
3.57687e-05
3.60821e-05
3.49856e-05
3.28263e-05
2.96711e-05
2.65402e-05
2.45695e-05
2.48341e-05
2.56989e-05
2.36006e-05
2.02899e-05
2.37634e-05
3.25562e-05
3.15791e-05
2.20481e-05
2.29141e-05
3.5538e-05
3.63204e-05
2.73071e-05
2.76971e-05
3.64034e-05
3.59472e-05
2.92591e-05
3.16408e-05
3.64253e-05
3.19799e-05
3.01985e-05
3.38662e-05
3.19388e-05
2.95945e-05
3.18969e-05
3.02431e-05
2.94612e-05
2.99386e-05
2.94569e-05
2.8334e-05
2.86879e-05
2.7559e-05
2.74334e-05
2.67252e-05
2.62602e-05
2.55548e-05
2.50262e-05
2.44635e-05
2.41379e-05
2.36767e-05
2.33304e-05
2.28964e-05
2.24941e-05
2.21063e-05
2.16945e-05
2.1295e-05
2.08975e-05
2.05096e-05
2.01285e-05
1.96938e-05
1.93568e-05
1.89269e-05
1.8564e-05
1.81844e-05
1.78345e-05
1.74403e-05
1.70779e-05
1.66885e-05
1.63135e-05
1.5921e-05
1.55286e-05
1.51009e-05
1.46671e-05
1.42121e-05
1.37863e-05
1.33481e-05
1.29283e-05
1.24496e-05
1.19881e-05
1.14605e-05
1.09497e-05
1.03901e-05
9.81559e-06
9.16318e-06
8.49477e-06
7.75645e-06
7.00333e-06
6.1781e-06
5.36265e-06
4.55535e-06
3.87999e-06
3.24332e-06
2.68123e-06
2.12829e-06
1.66212e-06
1.14411e-06
7.81107e-07
7.10985e-07
7.87773e-07
5.19724e-07
2.76902e-07
3.72453e-07
4.18724e-07
2.07377e-07
2.82395e-07
4.59856e-07
4.5804e-07
3.95774e-07
4.99198e-07
5.01593e-07
4.74681e-07
4.45602e-07
4.34318e-07
4.37575e-07
4.47616e-07
3.75757e-07
3.00731e-07
4.0947e-07
5.03203e-07
4.86698e-07
3.69831e-07
3.70639e-07
4.9208e-07
4.31801e-07
3.69377e-07
5.39588e-07
5.16988e-07
3.89279e-07
5.82828e-07
8.75057e-07
8.10676e-07
6.72827e-07
9.02011e-07
1.23034e-06
1.49764e-06
1.80713e-06
2.36779e-06
3.06854e-06
3.69893e-06
4.30866e-06
5.06489e-06
5.96001e-06
6.97556e-06
8.01611e-06
9.0712e-06
1.00394e-05
1.09699e-05
1.18316e-05
1.26569e-05
1.34088e-05
1.41079e-05
1.47061e-05
1.53042e-05
1.58353e-05
1.63259e-05
1.68272e-05
1.73314e-05
1.78519e-05
1.83112e-05
1.8786e-05
1.92341e-05
1.96492e-05
2.00919e-05
2.04528e-05
2.08228e-05
2.11508e-05
2.15063e-05
2.18616e-05
2.22786e-05
2.26591e-05
2.31027e-05
2.34179e-05
2.38457e-05
2.40912e-05
2.45198e-05
2.47773e-05
2.52062e-05
2.54595e-05
2.59057e-05
2.61457e-05
2.65475e-05
2.65957e-05
2.73068e-05
2.74207e-05
2.63164e-05
2.82873e-05
2.94988e-05
2.96292e-05
2.96269e-05
2.92601e-05
2.93647e-05
2.90026e-05
2.91605e-05
2.90071e-05
2.90423e-05
2.91152e-05
2.90215e-05
2.92791e-05
2.91204e-05
2.92969e-05
2.92808e-05
2.91806e-05
2.95743e-05
2.9236e-05
2.98178e-05
2.95559e-05
2.97364e-05
3.09511e-05
3.08955e-05
3.12536e-05
3.21037e-05
3.26785e-05
3.19961e-05
3.38548e-05
3.41848e-05
3.33694e-05
3.39115e-05
3.58606e-05
3.46059e-05
3.37285e-05
3.58646e-05
3.67239e-05
3.39581e-05
3.47921e-05
3.62186e-05
3.53349e-05
3.40292e-05
3.42007e-05
3.35307e-05
3.25708e-05
3.13069e-05
2.93777e-05
2.80707e-05
2.86928e-05
2.98122e-05
3.05032e-05
3.05266e-05
2.98768e-05
2.90178e-05
2.83587e-05
2.81218e-05
2.8027e-05
2.79637e-05
2.76493e-05
2.71778e-05
2.62173e-05
2.49878e-05
2.3196e-05
2.10072e-05
1.8355e-05
1.57908e-05
1.3121e-05
1.08533e-05
9.2007e-06
9.30306e-06
1.08008e-05
1.27227e-05
1.40646e-05
1.52381e-05
1.74728e-05
2.09579e-05
2.35854e-05
2.6217e-05
2.85547e-05
3.08001e-05
3.25963e-05
3.42475e-05
3.57784e-05
3.72559e-05
3.91757e-05
4.61283e-05
5.16716e-05
4.91419e-05
3.71364e-05
3.07804e-05
5.09268e-05
7.06343e-05
4.79264e-05
1.78246e-05
3.92438e-06
8.28001e-07
3.03784e-07
5.36579e-07
4.07109e-07
3.88779e-07
4.05945e-07
4.03213e-07
3.99714e-07
3.98366e-07
3.98467e-07
3.97999e-07
3.9791e-07
3.97873e-07
3.97871e-07
3.97849e-07
3.97823e-07
3.97797e-07
3.97787e-07
3.97827e-07
3.97779e-07
3.97801e-07
3.97797e-07
3.97784e-07
3.97858e-07
3.97801e-07
3.97812e-07
3.97823e-07
3.9781e-07
3.97845e-07
3.97862e-07
3.97822e-07
3.98039e-07
3.98538e-07
3.98376e-07
3.99377e-07
3.982e-07
3.88944e-07
3.79725e-07
4.14595e-07
4.17932e-07
2.72652e-07
2.51617e-07
1.34976e-07
1.8042e-07
2.95558e-08
1.092e-06
4.7409e-06
8.46284e-06
1.13707e-05
1.39743e-05
1.562e-05
1.6831e-05
1.79077e-05
1.89381e-05
1.99586e-05
2.12759e-05
2.23634e-05
2.40182e-05
2.52251e-05
2.71358e-05
2.85145e-05
3.04511e-05
3.20391e-05
3.37568e-05
3.53355e-05
3.67629e-05
3.79121e-05
3.89291e-05
3.93339e-05
3.96809e-05
3.92266e-05
3.86649e-05
3.71288e-05
3.54257e-05
3.28093e-05
2.9818e-05
2.60659e-05
2.21533e-05
1.7648e-05
1.33488e-05
9.33937e-06
6.30107e-06
5.0795e-06
7.01559e-06
1.1512e-05
1.62872e-05
2.02222e-05
2.40829e-05
2.86596e-05
3.41296e-05
3.96777e-05
4.43034e-05
4.61796e-05
4.58874e-05
4.33736e-05
3.92509e-05
3.43699e-05
3.0572e-05
2.98162e-05
3.2156e-05
3.27832e-05
2.85375e-05
2.53225e-05
3.23194e-05
4.24395e-05
3.80636e-05
2.64316e-05
3.11206e-05
4.72547e-05
4.53361e-05
3.29964e-05
3.54514e-05
4.71042e-05
4.47073e-05
3.53494e-05
3.96196e-05
4.55184e-05
3.84129e-05
3.63778e-05
4.13519e-05
3.78884e-05
3.47158e-05
3.78402e-05
3.50839e-05
3.39286e-05
3.43492e-05
3.33053e-05
3.16752e-05
3.20007e-05
3.01566e-05
2.98304e-05
2.86238e-05
2.78319e-05
2.67058e-05
2.58417e-05
2.49027e-05
2.43321e-05
2.36184e-05
2.31166e-05
2.24261e-05
2.18939e-05
2.13068e-05
2.07534e-05
2.0193e-05
1.96323e-05
1.91133e-05
1.85387e-05
1.79898e-05
1.74613e-05
1.69145e-05
1.63746e-05
1.58447e-05
1.53629e-05
1.47812e-05
1.42914e-05
1.37066e-05
1.31785e-05
1.2589e-05
1.20261e-05
1.13701e-05
1.07127e-05
9.99051e-06
9.29434e-06
8.56537e-06
7.85201e-06
7.06053e-06
6.28644e-06
5.44414e-06
4.68786e-06
4.00069e-06
3.37546e-06
2.7303e-06
2.17132e-06
1.70704e-06
1.35991e-06
1.03803e-06
8.07974e-07
6.09228e-07
5.60284e-07
4.88782e-07
4.50772e-07
3.88745e-07
3.96394e-07
3.69349e-07
3.77724e-07
3.51646e-07
3.99432e-07
3.65152e-07
3.93984e-07
3.91978e-07
4.02244e-07
4.29006e-07
4.51705e-07
3.78306e-07
4.23542e-07
4.19835e-07
3.74662e-07
3.37e-07
3.63528e-07
3.46572e-07
3.95616e-07
4.05159e-07
3.92826e-07
4.18968e-07
5.11743e-07
3.86015e-07
3.53525e-07
3.74503e-07
4.17223e-07
3.77306e-07
3.69674e-07
3.61686e-07
3.6071e-07
3.6749e-07
3.33921e-07
3.0854e-07
3.18409e-07
3.47277e-07
3.38264e-07
3.42862e-07
3.6913e-07
3.99549e-07
4.16178e-07
4.23504e-07
4.38171e-07
5.03843e-07
5.2846e-07
5.70665e-07
6.67536e-07
8.30821e-07
1.04e-06
1.3388e-06
1.70018e-06
2.17488e-06
2.67241e-06
3.28996e-06
4.03616e-06
4.89548e-06
5.77676e-06
6.65557e-06
7.60619e-06
8.58406e-06
9.49115e-06
1.04448e-05
1.13547e-05
1.22995e-05
1.31021e-05
1.39346e-05
1.46798e-05
1.54104e-05
1.61269e-05
1.67856e-05
1.73936e-05
1.79955e-05
1.85577e-05
1.91686e-05
1.97846e-05
2.04362e-05
2.10659e-05
2.16355e-05
2.22215e-05
2.27082e-05
2.32639e-05
2.38009e-05
2.43152e-05
2.48918e-05
2.53643e-05
2.6013e-05
2.62873e-05
2.68409e-05
2.72845e-05
2.79623e-05
2.76841e-05
2.94251e-05
3.07783e-05
3.07894e-05
3.1069e-05
3.08158e-05
3.12436e-05
3.09464e-05
3.13515e-05
3.13163e-05
3.15135e-05
3.17248e-05
3.17755e-05
3.22191e-05
3.22087e-05
3.24382e-05
3.26845e-05
3.26635e-05
3.33659e-05
3.29663e-05
3.39714e-05
3.3987e-05
3.42816e-05
3.61923e-05
3.63611e-05
3.69212e-05
3.83666e-05
3.96863e-05
3.86661e-05
4.14803e-05
4.26524e-05
4.17043e-05
4.22771e-05
4.58629e-05
4.47779e-05
4.30992e-05
4.64461e-05
4.90714e-05
4.50747e-05
4.58624e-05
4.88787e-05
4.84411e-05
4.6352e-05
4.66737e-05
4.61813e-05
4.50221e-05
4.34724e-05
4.10985e-05
3.88052e-05
3.89037e-05
4.04504e-05
4.1959e-05
4.26443e-05
4.22052e-05
4.11409e-05
4.00637e-05
3.95048e-05
3.9337e-05
3.93739e-05
3.92172e-05
3.8846e-05
3.79473e-05
3.67462e-05
3.51137e-05
3.31687e-05
3.0678e-05
2.80651e-05
2.5118e-05
2.2326e-05
1.91188e-05
1.64097e-05
1.54865e-05
1.66552e-05
1.8385e-05
2.03263e-05
2.31184e-05
2.72262e-05
3.14832e-05
3.53985e-05
3.83163e-05
4.10704e-05
4.33747e-05
4.55852e-05
4.71726e-05
4.86822e-05
4.97489e-05
5.17181e-05
5.51104e-05
5.22349e-05
4.59713e-05
4.56306e-05
6.43462e-05
8.11972e-05
5.49122e-05
2.10698e-05
5.10219e-06
4.20525e-07
1.33789e-07
3.47235e-07
4.43114e-07
3.85362e-07
3.85847e-07
3.97707e-07
3.99088e-07
3.98469e-07
3.9846e-07
3.98032e-07
3.97939e-07
3.97894e-07
3.97843e-07
3.97815e-07
3.97818e-07
3.97815e-07
3.9782e-07
3.97799e-07
3.97832e-07
3.97802e-07
3.97805e-07
3.97815e-07
3.97729e-07
3.97818e-07
3.97804e-07
3.97816e-07
3.97828e-07
3.97829e-07
3.97862e-07
3.9795e-07
3.98107e-07
3.9842e-07
3.98293e-07
3.9957e-07
4.01362e-07
4.02185e-07
3.85387e-07
3.67262e-07
4.18505e-07
3.96643e-07
4.10305e-07
7.29706e-07
8.77106e-07
8.82316e-07
1.78991e-06
4.50169e-06
8.79019e-06
1.13632e-05
1.52251e-05
1.70868e-05
1.90514e-05
2.06139e-05
2.20934e-05
2.36813e-05
2.52107e-05
2.69182e-05
2.86764e-05
3.05043e-05
3.24594e-05
3.43619e-05
3.63748e-05
3.82438e-05
4.00757e-05
4.17229e-05
4.312e-05
4.42254e-05
4.49605e-05
4.5136e-05
4.49434e-05
4.39734e-05
4.25286e-05
4.01427e-05
3.72517e-05
3.34835e-05
2.90252e-05
2.39523e-05
1.84849e-05
1.27584e-05
7.41566e-06
3.34191e-06
1.80498e-06
4.51694e-06
9.78976e-06
1.45028e-05
1.75855e-05
2.1159e-05
2.62769e-05
3.2434e-05
3.96369e-05
4.63444e-05
5.13053e-05
5.28367e-05
5.13809e-05
4.71908e-05
4.13113e-05
3.5577e-05
3.27641e-05
3.49205e-05
3.88172e-05
3.73891e-05
3.13067e-05
2.99627e-05
4.06931e-05
4.98582e-05
4.16129e-05
3.00222e-05
3.91905e-05
5.66349e-05
5.11224e-05
3.69037e-05
4.1994e-05
5.53449e-05
5.03205e-05
3.9252e-05
4.55425e-05
5.16092e-05
4.19869e-05
4.01853e-05
4.60026e-05
4.08498e-05
3.72094e-05
4.09255e-05
3.70105e-05
3.5562e-05
3.58213e-05
3.41558e-05
3.21502e-05
3.23806e-05
2.98653e-05
2.93734e-05
2.77193e-05
2.66939e-05
2.52574e-05
2.41809e-05
2.29651e-05
2.22074e-05
2.12821e-05
2.07335e-05
1.98387e-05
1.92433e-05
1.84928e-05
1.78333e-05
1.7133e-05
1.64179e-05
1.57755e-05
1.50071e-05
1.43511e-05
1.3604e-05
1.29697e-05
1.22044e-05
1.15579e-05
1.09034e-05
1.01296e-05
9.47051e-06
8.63451e-06
7.90071e-06
7.03832e-06
6.26835e-06
5.3485e-06
4.5277e-06
3.68079e-06
3.0418e-06
2.45197e-06
2.04298e-06
1.60068e-06
1.32372e-06
9.4251e-07
7.91119e-07
6.80025e-07
5.96962e-07
4.71182e-07
4.91885e-07
4.27911e-07
4.53628e-07
3.88377e-07
4.3727e-07
3.55769e-07
4.38351e-07
3.6083e-07
4.34812e-07
3.85317e-07
4.39931e-07
4.00827e-07
4.48072e-07
4.05884e-07
4.48921e-07
4.09788e-07
4.3231e-07
3.9565e-07
4.12414e-07
3.85711e-07
4.00219e-07
3.92985e-07
3.91425e-07
3.74966e-07
4.25822e-07
4.4248e-07
4.45099e-07
4.4363e-07
4.12324e-07
3.81633e-07
4.2645e-07
3.63684e-07
3.36227e-07
4.39347e-07
4.42375e-07
3.93476e-07
4.14433e-07
4.24836e-07
4.4448e-07
4.32831e-07
4.40924e-07
4.51377e-07
4.63315e-07
4.79632e-07
4.67554e-07
4.63742e-07
4.51643e-07
4.45316e-07
4.35622e-07
4.19386e-07
4.12796e-07
4.21329e-07
4.15868e-07
4.49064e-07
4.31744e-07
4.4472e-07
4.29441e-07
4.43895e-07
4.24894e-07
4.7126e-07
4.67461e-07
5.31151e-07
5.52382e-07
6.43212e-07
6.43101e-07
8.79142e-07
1.06029e-06
1.24512e-06
1.53807e-06
2.09069e-06
2.50734e-06
3.18173e-06
3.92458e-06
4.94771e-06
5.83492e-06
6.91248e-06
7.9447e-06
9.03059e-06
1.00825e-05
1.10825e-05
1.19541e-05
1.28484e-05
1.3618e-05
1.44864e-05
1.52949e-05
1.6209e-05
1.70158e-05
1.78238e-05
1.85594e-05
1.92593e-05
1.99419e-05
2.07191e-05
2.13576e-05
2.21882e-05
2.27885e-05
2.36992e-05
2.40576e-05
2.48226e-05
2.53762e-05
2.62326e-05
2.68444e-05
2.84697e-05
2.94797e-05
2.9234e-05
2.97332e-05
2.95766e-05
3.0318e-05
3.01101e-05
3.07511e-05
3.0849e-05
3.12234e-05
3.15197e-05
3.17721e-05
3.23003e-05
3.2549e-05
3.26769e-05
3.32662e-05
3.32555e-05
3.42736e-05
3.38069e-05
3.51506e-05
3.55693e-05
3.5875e-05
3.83664e-05
3.88596e-05
3.94483e-05
4.13074e-05
4.35827e-05
4.21958e-05
4.55512e-05
4.78463e-05
4.70685e-05
4.71902e-05
5.22357e-05
5.21399e-05
4.95305e-05
5.32203e-05
5.80865e-05
5.38788e-05
5.37772e-05
5.79715e-05
5.88062e-05
5.63856e-05
5.65155e-05
5.64214e-05
5.54614e-05
5.39616e-05
5.16996e-05
4.88815e-05
4.79963e-05
4.91892e-05
5.10625e-05
5.24281e-05
5.259e-05
5.17812e-05
5.05556e-05
4.96161e-05
4.91393e-05
4.90645e-05
4.9003e-05
4.88217e-05
4.81955e-05
4.72496e-05
4.58728e-05
4.41967e-05
4.20066e-05
3.96315e-05
3.68828e-05
3.41902e-05
3.12138e-05
2.80065e-05
2.45966e-05
2.26828e-05
2.26805e-05
2.41332e-05
2.67571e-05
3.07525e-05
3.55663e-05
4.06185e-05
4.52096e-05
4.93455e-05
5.26597e-05
5.55255e-05
5.73776e-05
5.92389e-05
5.90789e-05
5.93092e-05
5.86045e-05
5.65894e-05
5.3779e-05
5.40767e-05
6.96098e-05
8.60717e-05
5.95317e-05
2.42844e-05
7.57336e-06
2.60381e-06
7.8931e-07
1.79546e-07
3.13754e-07
4.10637e-07
4.02966e-07
3.99254e-07
3.9904e-07
3.98515e-07
3.98489e-07
3.9806e-07
3.97905e-07
3.9788e-07
3.97859e-07
3.97828e-07
3.97816e-07
3.9781e-07
3.97804e-07
3.97805e-07
3.97801e-07
3.97802e-07
3.978e-07
3.97755e-07
3.97838e-07
3.97802e-07
3.97827e-07
3.97817e-07
3.97811e-07
3.97843e-07
3.97855e-07
3.97927e-07
3.98056e-07
3.98561e-07
3.98246e-07
3.99537e-07
4.00537e-07
4.08055e-07
4.20458e-07
3.95647e-07
3.8243e-07
4.95959e-07
4.91525e-07
4.72301e-07
5.19922e-07
9.16928e-07
1.03025e-06
2.26808e-06
6.01776e-06
1.13492e-05
1.46679e-05
1.79485e-05
2.02987e-05
2.24615e-05
2.44937e-05
2.64326e-05
2.83808e-05
3.03918e-05
3.23899e-05
3.44856e-05
3.65635e-05
3.86299e-05
4.068e-05
4.25691e-05
4.43438e-05
4.58249e-05
4.70181e-05
4.78075e-05
4.80899e-05
4.77866e-05
4.68931e-05
4.51927e-05
4.27667e-05
3.9393e-05
3.53039e-05
3.03254e-05
2.45457e-05
1.833e-05
1.18204e-05
5.86976e-06
1.66023e-06
1.07876e-06
3.96552e-06
8.28398e-06
1.10112e-05
1.35342e-05
1.63635e-05
2.06325e-05
2.75098e-05
3.4962e-05
4.33671e-05
5.04263e-05
5.49433e-05
5.55452e-05
5.25252e-05
4.66606e-05
3.9619e-05
3.43707e-05
3.44766e-05
4.0081e-05
4.33583e-05
3.89388e-05
3.24096e-05
3.44946e-05
4.81148e-05
5.43292e-05
4.27938e-05
3.30412e-05
4.64162e-05
6.32896e-05
5.41385e-05
3.92621e-05
4.70967e-05
6.10503e-05
5.31481e-05
4.1191e-05
4.94169e-05
5.48991e-05
4.3022e-05
4.17984e-05
4.80123e-05
4.11376e-05
3.73286e-05
4.14021e-05
3.63239e-05
3.46555e-05
3.46817e-05
3.23901e-05
3.01358e-05
3.02311e-05
2.71408e-05
2.65526e-05
2.45486e-05
2.34185e-05
2.17959e-05
2.0634e-05
1.92299e-05
1.83095e-05
1.72662e-05
1.66857e-05
1.56841e-05
1.5023e-05
1.41538e-05
1.33837e-05
1.25787e-05
1.1675e-05
1.09256e-05
9.90998e-06
9.10956e-06
8.05814e-06
7.27625e-06
6.20618e-06
5.48376e-06
4.68821e-06
3.90449e-06
3.30313e-06
2.61075e-06
2.14863e-06
1.64383e-06
1.39296e-06
9.9985e-07
8.26439e-07
6.26189e-07
5.76562e-07
4.89961e-07
4.69144e-07
4.1196e-07
4.53312e-07
3.65942e-07
4.13831e-07
3.8691e-07
4.0543e-07
3.75637e-07
4.18229e-07
3.58648e-07
4.22515e-07
3.62335e-07
4.48362e-07
3.76686e-07
4.60746e-07
3.80243e-07
4.4234e-07
3.7728e-07
4.22419e-07
3.82136e-07
4.08199e-07
3.78694e-07
3.94411e-07
3.79224e-07
3.9656e-07
3.97492e-07
4.12641e-07
4.10771e-07
4.14307e-07
4.12265e-07
4.23977e-07
4.27306e-07
4.0166e-07
3.79047e-07
3.7032e-07
3.67452e-07
3.87699e-07
4.16858e-07
4.03703e-07
4.35428e-07
4.57067e-07
3.79882e-07
3.86661e-07
4.05373e-07
3.81947e-07
3.65418e-07
3.63268e-07
3.65082e-07
3.54187e-07
3.47021e-07
3.27723e-07
3.39969e-07
3.38285e-07
3.60983e-07
3.54434e-07
3.76451e-07
3.74822e-07
3.98486e-07
3.85254e-07
4.02856e-07
3.73378e-07
3.93947e-07
3.68053e-07
4.02035e-07
3.77657e-07
4.13457e-07
3.76647e-07
4.19487e-07
3.56736e-07
4.19748e-07
3.52371e-07
4.36249e-07
3.80893e-07
4.37726e-07
4.3663e-07
4.81495e-07
4.25497e-07
5.71039e-07
5.37696e-07
6.15972e-07
6.34414e-07
1.02551e-06
1.10162e-06
1.48344e-06
1.87339e-06
2.51232e-06
3.19908e-06
4.01064e-06
4.79978e-06
5.79491e-06
6.68857e-06
7.8155e-06
8.88898e-06
1.01333e-05
1.11982e-05
1.22605e-05
1.31845e-05
1.40609e-05
1.49013e-05
1.58551e-05
1.66854e-05
1.76799e-05
1.85207e-05
1.95653e-05
2.01667e-05
2.09547e-05
2.17433e-05
2.26975e-05
2.42769e-05
2.57431e-05
2.63253e-05
2.56751e-05
2.62844e-05
2.61476e-05
2.71561e-05
2.70248e-05
2.78733e-05
2.80899e-05
2.86683e-05
2.89764e-05
2.95029e-05
2.99943e-05
3.06209e-05
3.05176e-05
3.15042e-05
3.14313e-05
3.28024e-05
3.22451e-05
3.38469e-05
3.47889e-05
3.5038e-05
3.79546e-05
3.88917e-05
3.93944e-05
4.13851e-05
4.4789e-05
4.31087e-05
4.6533e-05
5.0074e-05
4.9908e-05
4.91775e-05
5.52655e-05
5.691e-05
5.35878e-05
5.66629e-05
6.3818e-05
6.06007e-05
5.91527e-05
6.37764e-05
6.63604e-05
6.43084e-05
6.40573e-05
6.43271e-05
6.38638e-05
6.26886e-05
6.08566e-05
5.80859e-05
5.6352e-05
5.66929e-05
5.8345e-05
6.00936e-05
6.09151e-05
6.06607e-05
5.96336e-05
5.8495e-05
5.76383e-05
5.7238e-05
5.70587e-05
5.69409e-05
5.65553e-05
5.5907e-05
5.4858e-05
5.35051e-05
5.16691e-05
4.95969e-05
4.71437e-05
4.46318e-05
4.18716e-05
3.90348e-05
3.57392e-05
3.23637e-05
2.95929e-05
2.85265e-05
2.94333e-05
3.23326e-05
3.67313e-05
4.19811e-05
4.73911e-05
5.25593e-05
5.7126e-05
6.10435e-05
6.40666e-05
6.6395e-05
6.714e-05
6.69038e-05
6.39797e-05
6.0286e-05
5.9211e-05
5.86606e-05
6.90677e-05
8.54352e-05
6.19772e-05
2.81921e-05
9.44676e-06
3.94721e-06
1.64801e-06
7.93753e-07
3.88289e-07
3.81919e-07
4.03038e-07
4.0159e-07
3.99443e-07
3.98548e-07
3.98664e-07
3.98083e-07
3.9795e-07
3.97871e-07
3.97842e-07
3.97819e-07
3.97817e-07
3.97807e-07
3.97807e-07
3.97801e-07
3.97802e-07
3.97796e-07
3.97807e-07
3.97878e-07
3.97803e-07
3.97828e-07
3.97791e-07
3.97815e-07
3.9782e-07
3.97833e-07
3.97857e-07
3.97941e-07
3.98084e-07
3.98592e-07
3.98227e-07
3.98982e-07
3.98247e-07
3.98854e-07
4.12683e-07
4.10353e-07
3.3647e-07
3.10654e-07
3.27703e-07
1.85946e-07
2.94598e-07
2.8722e-07
8.73898e-07
2.10857e-06
5.49271e-06
9.82362e-06
1.37569e-05
1.73802e-05
2.0244e-05
2.28758e-05
2.53701e-05
2.76022e-05
2.99732e-05
3.21139e-05
3.44031e-05
3.65622e-05
3.87276e-05
4.0813e-05
4.27645e-05
4.45605e-05
4.60856e-05
4.73145e-05
4.81031e-05
4.84523e-05
4.81351e-05
4.72169e-05
4.55032e-05
4.29736e-05
3.95162e-05
3.51366e-05
2.99131e-05
2.38678e-05
1.71427e-05
1.04592e-05
4.36636e-06
8.7917e-07
1.31444e-06
2.54305e-06
4.82304e-06
6.36148e-06
8.53228e-06
1.07118e-05
1.39892e-05
1.9878e-05
2.75734e-05
3.61367e-05
4.477e-05
5.15922e-05
5.51345e-05
5.43139e-05
4.95248e-05
4.22254e-05
3.50147e-05
3.20666e-05
3.66695e-05
4.41784e-05
4.45225e-05
3.76222e-05
3.24552e-05
3.89043e-05
5.36525e-05
5.56858e-05
4.21229e-05
3.54541e-05
5.20961e-05
6.70917e-05
5.47749e-05
4.01219e-05
5.04667e-05
6.4213e-05
5.34838e-05
4.12441e-05
5.11736e-05
5.55498e-05
4.17351e-05
4.12758e-05
4.74997e-05
3.89723e-05
3.52086e-05
3.94231e-05
3.32371e-05
3.14127e-05
3.11681e-05
2.82959e-05
2.59173e-05
2.58701e-05
2.23536e-05
2.17615e-05
1.95376e-05
1.8432e-05
1.6728e-05
1.55565e-05
1.40057e-05
1.29824e-05
1.1879e-05
1.12077e-05
1.01467e-05
9.38795e-06
8.36532e-06
7.43058e-06
6.56678e-06
5.40956e-06
4.73498e-06
3.57741e-06
3.03455e-06
2.10943e-06
1.943e-06
1.10951e-06
1.25113e-06
7.78394e-07
7.72516e-07
5.66346e-07
6.09782e-07
4.06085e-07
5.45289e-07
3.6544e-07
5.03056e-07
3.40882e-07
4.81343e-07
3.52785e-07
4.73155e-07
3.81256e-07
4.60659e-07
4.07933e-07
4.41973e-07
4.15794e-07
4.35528e-07
4.16669e-07
4.26048e-07
4.23102e-07
4.2484e-07
4.29853e-07
4.14119e-07
4.11948e-07
3.90295e-07
3.96731e-07
3.89937e-07
4.03789e-07
4.03734e-07
4.10729e-07
4.08314e-07
4.08519e-07
4.13587e-07
4.19427e-07
4.24627e-07
4.12656e-07
4.04225e-07
3.93134e-07
3.94594e-07
3.91831e-07
3.93605e-07
3.84599e-07
3.81323e-07
3.93764e-07
4.12885e-07
4.30544e-07
4.30019e-07
4.26789e-07
3.9393e-07
4.00732e-07
3.48793e-07
3.84727e-07
4.16595e-07
4.09737e-07
4.07497e-07
4.27502e-07
4.32706e-07
4.30331e-07
4.37866e-07
4.46362e-07
4.64024e-07
4.59185e-07
4.58545e-07
4.4041e-07
4.44467e-07
4.30145e-07
4.32393e-07
4.14143e-07
4.22841e-07
4.12576e-07
4.33777e-07
4.24313e-07
4.42336e-07
4.19204e-07
4.35928e-07
4.09614e-07
4.32743e-07
4.04773e-07
4.47388e-07
4.08673e-07
4.55183e-07
4.05913e-07
4.38237e-07
3.90442e-07
4.21653e-07
3.77491e-07
4.20095e-07
3.45422e-07
4.46004e-07
3.52877e-07
4.97849e-07
2.99924e-07
5.73871e-07
3.57707e-07
5.19994e-07
4.85594e-07
5.61653e-07
6.67628e-07
8.22865e-07
8.45642e-07
1.27618e-06
1.41506e-06
1.94561e-06
2.43564e-06
3.36579e-06
4.2819e-06
5.31782e-06
6.29166e-06