/*--------------------------------*- C++ -*----------------------------------*\
| =========                 |                                                 |
| \\      /  F ield         | OpenFOAM: The Open Source CFD Toolbox           |
|  \\    /   O peration     | Version:  v2006                                 |
|   \\  /    A nd           | Website:  www.openfoam.com                      |
|    \\/     M anipulation  |                                                 |
\*---------------------------------------------------------------------------*/
FoamFile
{
    version     2.0;
    format      ascii;
    class       volScalarField;
    location    "40";
    object      p;
}
// * * * * * * * * * * * * * * * * * * * * * * * * * * * * * * * * * * * * * //

dimensions      [1 -1 -2 0 0 0 0];


internalField   nonuniform List<scalar> 
93840
(
1.00343
1.00444
1.00112
1.00191
0.999431
1.00199
1.00072
1.00544
1.00289
1.00224
1.00806
1.00861
1.01603
1.01914
1.02635
1.03159
1.04153
1.04211
1.04215
1.03719
1.03798
1.03932
1.03856
1.03948
1.03437
1.03779
1.03423
1.03474
1.03327
1.03741
1.0292
1.05799
1.02919
1.0406
1.044
1.04978
1.05153
1.05652
1.05808
1.06294
1.06339
1.06736
1.0679
1.07119
1.07205
1.0752
1.0764
1.07876
1.07968
1.08227
1.08342
1.08496
1.08701
1.09028
1.09036
1.08917
1.09022
1.09314
1.09508
1.09645
1.09611
1.09773
1.09956
1.10014
1.09969
1.10083
1.10107
1.10092
1.10109
1.10086
1.10019
1.09993
1.09956
1.09877
1.09797
1.0969
1.09603
1.09498
1.09369
1.09246
1.09122
1.09003
1.08857
1.08626
1.08373
1.08186
1.08006
1.07765
1.07457
1.07209
1.06927
1.06537
1.0611
1.05744
1.05372
1.04894
1.04437
1.0402
1.03528
1.02975
1.02456
1.019
1.01334
1.0041
0.994453
0.990922
0.988146
0.980708
0.972505
0.964318
0.95622
0.948169
0.9405
0.931091
0.92242
0.913797
0.906179
0.897049
0.89015
0.88304
0.87851
0.872511
0.871006
0.867757
0.869789
0.875348
0.875342
0.885071
0.887182
0.893625
0.900585
0.908275
0.915665
0.92239
0.928834
0.935629
0.94174
0.94929
0.954955
0.961851
0.966619
0.973579
0.977987
0.98558
0.98927
0.995615
1.00085
1.00604
1.01269
1.01863
1.02487
1.03093
1.0368
1.04411
1.05066
1.0585
1.06495
1.07305
1.08022
1.08902
1.09633
1.10379
1.11194
1.12118
1.1302
1.14142
1.1524
1.16474
1.17589
1.188
1.20261
1.21871
1.23445
1.25127
1.26953
1.29014
1.31217
1.33922
1.36469
1.39035
1.40777
1.42632
1.40163
1.33294
1.20833
1.07806
0.931302
0.843302
0.799974
0.794011
0.710964
0.657814
0.625583
0.613206
0.579995
0.572879
0.563811
0.563977
0.556071
0.55768
0.562592
0.564105
0.566766
0.568391
0.571211
0.574108
0.577792
0.580496
0.584827
0.586439
0.587433
0.588347
0.589637
0.590187
0.592075
0.593113
0.593878
0.594519
0.595205
0.5942
0.590345
0.58845
0.589247
0.589979
0.591709
0.59255
0.593091
0.594295
0.595296
0.596469
0.594173
0.588993
0.585816
0.580831
0.581158
0.579671
0.579553
0.580037
0.578725
0.576907
0.575662
0.573261
0.570778
0.568309
0.567821
0.566216
0.56376
0.561902
0.567874
0.575429
0.594569
0.661744
0.75152
0.784833
0.791371
0.795835
0.79897
0.803491
0.808658
0.81439
0.820082
0.826572
0.833102
0.840226
0.84707
0.854458
0.861141
0.868633
0.878069
0.887199
0.892169
0.897202
0.904842
0.913208
0.918929
0.923738
0.929413
0.935735
0.941569
0.947026
0.952089
0.957141
0.961984
0.966559
0.970926
0.975222
0.979024
0.982596
0.986125
0.989425
0.992345
0.995197
0.997925
1.00039
1.0027
1.00474
1.00679
1.00855
1.01026
1.0116
1.01301
1.01426
1.01534
1.01645
1.01747
1.01819
1.01931
1.01962
1.0205
1.02098
1.02172
1.02197
1.02259
1.02263
1.023
1.02289
1.02344
1.02321
1.02405
1.02369
1.02462
1.02375
1.02494
1.02437
1.02536
1.0249
1.02615
1.02472
1.02649
1.02481
1.02724
1.02595
1.02904
1.02616
1.02742
1.02247
1.02104
1.03073
1.0319
1.03418
1.03109
1.03451
1.04441
1.03629
1.03903
1.03874
1.03944
1.03993
1.03806
1.04225
1.04235
1.04132
1.03149
1.02669
1.019
1.01618
1.00825
1.00887
1.00212
1.00365
1.00516
1.00125
1.00228
1.00021
1.00147
1.00129
1.00435
1.00339
1.00352
1.00448
1.00133
1.00145
1.00022
1.00222
1.00126
1.00514
1.0037
1.00212
1.00886
1.00831
1.01623
1.01902
1.02684
1.03184
1.04121
1.04246
1.04206
1.03802
1.04029
1.03948
1.03899
1.03921
1.03627
1.04341
1.03512
1.03457
1.03506
1.03295
1.03419
1.03231
1.0355
1.04175
1.0433
1.05008
1.05028
1.05623
1.05716
1.06186
1.06263
1.06636
1.06742
1.07046
1.0715
1.07459
1.07552
1.07828
1.07906
1.08184
1.08296
1.08456
1.08639
1.0892
1.08949
1.089
1.0902
1.09298
1.0947
1.0959
1.09589
1.09749
1.09896
1.09973
1.09949
1.10043
1.10062
1.10069
1.1007
1.10052
1.09989
1.09964
1.09929
1.09855
1.09776
1.09674
1.09591
1.09487
1.09359
1.09235
1.09109
1.08989
1.08832
1.08599
1.08361
1.08184
1.07993
1.07743
1.07443
1.072
1.06914
1.06524
1.06103
1.05739
1.05364
1.04888
1.04434
1.04016
1.03524
1.02974
1.02457
1.01897
1.01327
1.0042
0.99477
0.991092
0.988083
0.98072
0.972648
0.964503
0.956442
0.948407
0.940745
0.931406
0.92282
0.914234
0.906622
0.897589
0.890756
0.883711
0.879177
0.873325
0.871832
0.868658
0.870563
0.876103
0.876259
0.885703
0.887963
0.894386
0.901208
0.908875
0.916079
0.922797
0.929332
0.936116
0.942209
0.94978
0.955437
0.962403
0.96728
0.974213
0.978548
0.986076
0.989876
0.996081
1.00159
1.00682
1.01341
1.01936
1.02572
1.03181
1.03785
1.04533
1.0519
1.05977
1.06621
1.07438
1.08142
1.09015
1.0979
1.10573
1.11419
1.12354
1.13281
1.14414
1.15532
1.16779
1.17961
1.19233
1.20746
1.22399
1.24041
1.25775
1.27481
1.29615
1.31488
1.33675
1.35633
1.37895
1.3883
1.4074
1.39141
1.343
1.25879
1.15825
1.03753
0.938974
0.869428
0.838667
0.765553
0.708066
0.660352
0.641865
0.605952
0.593655
0.580638
0.576634
0.566712
0.566063
0.568804
0.570115
0.572206
0.572929
0.575022
0.577364
0.58075
0.583163
0.587156
0.588654
0.589666
0.590396
0.591536
0.591914
0.59356
0.594427
0.595115
0.595722
0.59645
0.595402
0.591571
0.589704
0.590172
0.590757
0.59234
0.593206
0.593763
0.594803
0.59566
0.59689
0.594932
0.589608
0.586474
0.58146
0.581711
0.580107
0.580083
0.580204
0.57888
0.57774
0.576281
0.57317
0.571358
0.569186
0.568012
0.566164
0.564436
0.562644
0.568021
0.575808
0.594912
0.662125
0.751959
0.785065
0.791486
0.795917
0.799116
0.803667
0.808823
0.814537
0.820233
0.826724
0.83325
0.840374
0.847205
0.85459
0.86132
0.868838
0.87815
0.887171
0.892243
0.8974
0.904972
0.913215
0.918941
0.92384
0.929539
0.93581
0.941631
0.947096
0.952163
0.957214
0.962052
0.966624
0.970981
0.97527
0.979079
0.982658
0.986177
0.989481
0.992395
0.995245
0.997968
1.00044
1.00275
1.0048
1.00683
1.0086
1.01029
1.01166
1.01304
1.0143
1.01538
1.0165
1.0175
1.01824
1.01934
1.01967
1.02055
1.02102
1.02174
1.02199
1.02265
1.02268
1.02315
1.0229
1.02353
1.02328
1.02412
1.02357
1.02457
1.02395
1.02512
1.02424
1.02526
1.0245
1.02603
1.02523
1.02613
1.02528
1.02786
1.02317
1.02751
1.02475
1.02836
1.01819
1.03298
1.02535
1.0309
1.02978
1.03082
1.03588
1.03662
1.03279
1.03892
1.03803
1.03917
1.03784
1.03715
1.0423
1.0419
1.04175
1.03146
1.02646
1.01924
1.01602
1.00868
1.00812
1.00223
1.00287
1.00548
1.00071
1.002
0.999449
1.00189
1.00112
1.00448
1.00347
1.00356
1.00453
1.00117
1.00188
0.99942
1.00198
1.00074
1.00545
1.00289
1.00222
1.00802
1.00853
1.01602
1.01918
1.02627
1.03134
1.04118
1.04231
1.04188
1.03733
1.03843
1.03975
1.03858
1.0401
1.03545
1.03882
1.03426
1.03802
1.03394
1.04361
1.03484
1.05044
1.0369
1.04875
1.04424
1.05284
1.05056
1.05774
1.05689
1.06251
1.06256
1.06639
1.06735
1.07036
1.07143
1.07441
1.0754
1.078
1.07903
1.0815
1.08252
1.0845
1.08602
1.08873
1.08947
1.08938
1.09015
1.09262
1.09418
1.09579
1.09581
1.09726
1.09872
1.09961
1.09913
1.1
1.10044
1.10042
1.10049
1.10044
1.09973
1.0995
1.0991
1.09844
1.09761
1.09663
1.09576
1.09473
1.09344
1.09222
1.09102
1.0898
1.08822
1.08593
1.08356
1.08175
1.07984
1.07735
1.07438
1.07193
1.06907
1.06519
1.06099
1.05734
1.05359
1.04884
1.04433
1.04014
1.03523
1.02975
1.02456
1.01896
1.01323
1.00423
0.994907
0.99119
0.988102
0.980754
0.972735
0.964618
0.956579
0.948566
0.940895
0.931598
0.923054
0.91449
0.906904
0.897895
0.891131
0.884093
0.879624
0.873753
0.872346
0.869273
0.87132
0.8767
0.876713
0.886136
0.888349
0.894802
0.901606
0.909273
0.916675
0.923592
0.929899
0.936644
0.942498
0.950034
0.955692
0.962587
0.967512
0.974541
0.978987
0.986592
0.990377
0.996888
1.00203
1.00735
1.01408
1.01998
1.0262
1.03248
1.0384
1.04556
1.05228
1.0603
1.06704
1.07521
1.08262
1.09125
1.09877
1.10659
1.11506
1.12459
1.1339
1.1452
1.15619
1.16862
1.18059
1.19344
1.20802
1.22377
1.23984
1.25729
1.2759
1.29653
1.31844
1.34322
1.36456
1.39101
1.40081
1.41477
1.39274
1.34274
1.25761
1.15793
1.03625
0.944349
0.877197
0.846958
0.77099
0.715565
0.673745
0.653531
0.614843
0.600133
0.586315
0.582532
0.57192
0.571111
0.57283
0.572786
0.57486
0.575677
0.577394
0.579333
0.582651
0.584886
0.588732
0.590147
0.591013
0.591757
0.593023
0.593023
0.594389
0.595285
0.595991
0.596511
0.596916
0.596147
0.592676
0.589888
0.590466
0.591014
0.592696
0.593639
0.593984
0.595054
0.596125
0.59728
0.595027
0.590159
0.586971
0.581821
0.5819
0.580365
0.580166
0.580614
0.579325
0.577464
0.576181
0.574215
0.571497
0.568732
0.56846
0.56709
0.564614
0.5624
0.567981
0.575903
0.594572
0.661394
0.752299
0.785946
0.791884
0.796063
0.799252
0.803784
0.808939
0.814668
0.820341
0.826835
0.833367
0.840463
0.847285
0.854662
0.861405
0.868914
0.878189
0.887185
0.892297
0.897478
0.905025
0.91322
0.918979
0.923903
0.929589
0.935861
0.94165
0.947118
0.952188
0.957218
0.962074
0.966666
0.971021
0.975305
0.979114
0.982684
0.986192
0.989484
0.99244
0.995275
0.998005
1.00046
1.00278
1.0048
1.00686
1.00861
1.01029
1.0117
1.01309
1.01431
1.01543
1.01649
1.01751
1.01826
1.0193
1.01976
1.02056
1.02099
1.02173
1.02196
1.02258
1.02257
1.02287
1.02285
1.0234
1.02327
1.02403
1.02361
1.02458
1.02408
1.02511
1.02419
1.02535
1.02466
1.02606
1.02534
1.02654
1.02519
1.02826
1.0239
1.02707
1.02686
1.02926
1.02411
1.02966
1.02732
1.03058
1.03293
1.03429
1.03537
1.04118
1.03462
1.03899
1.0384
1.03933
1.03976
1.03802
1.04249
1.04217
1.04119
1.03149
1.02664
1.01905
1.01617
1.00816
1.00882
1.00208
1.00358
1.00516
1.00124
1.00226
1.00019
1.00142
1.0012
1.00444
1.00348
1.00322
1.00429
1.00146
1.00139
1.00016
1.00218
1.00125
1.00511
1.00368
1.00204
1.00881
1.00835
1.01628
1.01899
1.02691
1.03217
1.041
1.0422
1.04181
1.0381
1.03981
1.03956
1.03915
1.03992
1.03702
1.0435
1.03745
1.03704
1.03793
1.03629
1.03779
1.03829
1.04085
1.04412
1.046
1.05011
1.05188
1.05548
1.05746
1.06111
1.06202
1.06579
1.06661
1.07002
1.07067
1.07401
1.07478
1.07753
1.07869
1.08102
1.08233
1.08399
1.08526
1.08777
1.08878
1.08937
1.09026
1.09244
1.09393
1.09522
1.09559
1.09731
1.09805
1.09913
1.09905
1.09965
1.09997
1.10025
1.10006
1.10008
1.09947
1.09923
1.09885
1.09819
1.09743
1.09656
1.09566
1.09462
1.09331
1.0921
1.0909
1.08965
1.08796
1.08569
1.08349
1.08173
1.07967
1.07714
1.07428
1.07186
1.06892
1.06504
1.06095
1.05731
1.0535
1.04881
1.04432
1.04009
1.03518
1.02975
1.02458
1.01895
1.01322
1.00433
0.995169
0.991355
0.988057
0.980795
0.972891
0.964812
0.956812
0.948814
0.941167
0.931913
0.923447
0.91492
0.907315
0.898418
0.891669
0.884735
0.880195
0.87456
0.873052
0.869955
0.871782
0.8773
0.877553
0.88665
0.889137
0.895419
0.902061
0.909746
0.916712
0.923507
0.9301
0.936812
0.942934
0.950465
0.956159
0.963159
0.968143
0.975098
0.979421
0.986882
0.990853
0.996855
1.00266
1.00798
1.01443
1.02041
1.02677
1.03294
1.03911
1.0468
1.05342
1.06134
1.06787
1.07613
1.08314
1.09169
1.09984
1.1079
1.11675
1.12619
1.13564
1.14691
1.15828
1.17069
1.18309
1.19606
1.21127
1.22753
1.2437
1.26145
1.27883
1.2998
1.32054
1.34255
1.36291
1.38026
1.39166
1.40689
1.38514
1.35477
1.2769
1.19414
1.09106
0.99897
0.922091
0.879784
0.809167
0.749755
0.698478
0.674454
0.634301
0.617173
0.599054
0.592169
0.580462
0.577583
0.576916
0.577183
0.579168
0.579288
0.580513
0.58176
0.584762
0.586971
0.5907
0.592065
0.593182
0.593596
0.594526
0.594812
0.595751
0.596434
0.597124
0.597474
0.598432
0.59737
0.593772
0.591403
0.59144
0.591804
0.593476
0.594087
0.594588
0.595512
0.596598
0.597758
0.596135
0.590888
0.587579
0.582439
0.582642
0.580865
0.580696
0.580896
0.579738
0.578301
0.576644
0.574024
0.572377
0.569643
0.568371
0.566998
0.565509
0.563227
0.568196
0.576116
0.594562
0.661456
0.753273
0.786556
0.792147
0.796202
0.7994
0.803987
0.809151
0.814822
0.820497
0.827
0.833517
0.840628
0.847433
0.854813
0.861594
0.869125
0.878286
0.887197
0.89238
0.897658
0.905129
0.913268
0.918992
0.923966
0.929708
0.93591
0.941725
0.947218
0.952293
0.957338
0.962163
0.966745
0.971074
0.975311
0.979187
0.982787
0.986247
0.989585
0.992507
0.99534
0.998037
1.00053
1.00282
1.00491
1.00688
1.00871
1.01026
1.0118
1.01308
1.0144
1.01547
1.01659
1.01754
1.01835
1.0193
1.01986
1.02063
1.02105
1.02173
1.02196
1.02266
1.0226
1.02313
1.02288
1.02358
1.02328
1.02411
1.02361
1.02468
1.02386
1.02513
1.0244
1.02539
1.02495
1.02634
1.02444
1.02615
1.0258
1.02708
1.02464
1.02775
1.02549
1.02927
1.02381
1.02989
1.02714
1.03064
1.0301
1.03083
1.03401
1.03446
1.03141
1.03892
1.03759
1.03932
1.03772
1.0371
1.04257
1.04166
1.04181
1.03133
1.02657
1.01931
1.01599
1.00867
1.00819
1.00226
1.00287
1.00554
1.00071
1.00198
0.999502
1.00188
1.00111
1.00445
1.00341
1.00367
1.00453
1.0011
1.00187
0.999404
1.00196
1.00076
1.00548
1.00288
1.00227
1.008
1.00852
1.01595
1.01907
1.02644
1.03156
1.04094
1.04209
1.0417
1.03771
1.03955
1.04
1.03849
1.04067
1.03611
1.03977
1.03535
1.03984
1.03624
1.04488
1.03808
1.04856
1.04093
1.05076
1.04587
1.05423
1.0512
1.05811
1.05695
1.06217
1.06209
1.06612
1.06653
1.07013
1.07057
1.07392
1.07466
1.07725
1.07868
1.08068
1.08192
1.08406
1.08493
1.08734
1.08878
1.08976
1.09013
1.09196
1.09355
1.0951
1.09564
1.09671
1.09771
1.09889
1.09858
1.09926
1.09972
1.09991
1.09977
1.09988
1.09928
1.09902
1.0986
1.09807
1.09731
1.09639
1.09549
1.09441
1.09311
1.09195
1.0908
1.08949
1.0878
1.0856
1.08343
1.0816
1.07951
1.07703
1.07424
1.07177
1.0688
1.06497
1.0609
1.05724
1.0534
1.04875
1.04432
1.04007
1.03517
1.02976
1.02455
1.01892
1.01316
1.00435
0.995349
0.991487
0.988105
0.980838
0.973004
0.96496
0.956989
0.949029
0.941358
0.932177
0.923764
0.915263
0.907706
0.898816
0.892193
0.885236
0.880826
0.875069
0.873774
0.870871
0.872921
0.878132
0.878146
0.887257
0.889557
0.895976
0.902637
0.910327
0.917673
0.924772
0.930972
0.937664
0.94328
0.950785
0.956456
0.963332
0.968472
0.975553
0.980117
0.987626
0.991501
0.998028
1.00319
1.00849
1.01525
1.02117
1.02744
1.0339
1.03988
1.04691
1.05375
1.06184
1.06873
1.07677
1.08442
1.09284
1.10074
1.10871
1.11742
1.12703
1.13658
1.1478
1.15894
1.17126
1.18362
1.19679
1.21143
1.22671
1.24293
1.26047
1.27876
1.29864
1.31911
1.34092
1.36005
1.37925
1.38808
1.40005
1.37503
1.33864
1.26796
1.18614
1.0839
0.997519
0.924419
0.883415
0.810688
0.756416
0.710121
0.684686
0.642746
0.623305
0.603799
0.597585
0.586349
0.583031
0.581493
0.581621
0.582856
0.582393
0.583474
0.584101
0.586767
0.588842
0.592451
0.593713
0.595
0.595167
0.5961
0.59598
0.597001
0.597438
0.598213
0.598552
0.598714
0.598271
0.595085
0.591752
0.592021
0.592399
0.593886
0.594403
0.595131
0.595958
0.597146
0.598225
0.596241
0.591446
0.588208
0.582786
0.582801
0.581181
0.581128
0.581083
0.579637
0.578738
0.577362
0.574295
0.572278
0.570191
0.569226
0.567106
0.565763
0.563586
0.568228
0.57598
0.593966
0.66085
0.754069
0.787753
0.792913
0.796464
0.799632
0.804189
0.809324
0.815044
0.82068
0.827174
0.8337
0.840756
0.84755
0.85491
0.861706
0.869214
0.878335
0.887213
0.892459
0.897753
0.905214
0.913261
0.919069
0.924086
0.92977
0.936012
0.941736
0.94721
0.952302
0.957271
0.962146
0.966793
0.971128
0.97539
0.97921
0.982801
0.986252
0.989502
0.992551
0.995364
0.998085
1.00052
1.00287
1.00483
1.00691
1.00864
1.01031
1.01178
1.0132
1.01437
1.01556
1.01653
1.01754
1.01829
1.01925
1.01989
1.02066
1.021
1.02177
1.02197
1.02259
1.02256
1.02295
1.02289
1.02348
1.02331
1.02404
1.02369
1.02463
1.02395
1.02516
1.02462
1.02545
1.02483
1.02669
1.02478
1.0265
1.02601
1.02743
1.02489
1.02884
1.02556
1.02885
1.02631
1.03085
1.02788
1.03122
1.03199
1.03382
1.03438
1.03837
1.03361
1.03922
1.03837
1.03932
1.03963
1.03781
1.04279
1.04222
1.04103
1.03146
1.02686
1.01904
1.0162
1.00813
1.0088
1.00199
1.00355
1.00517
1.00123
1.00224
1.00024
1.00138
1.00123
1.00441
1.00342
1.00314
1.00439
1.00149
1.00138
1.00015
1.0022
1.00124
1.00506
1.00366
1.00198
1.0088
1.00833
1.01637
1.0189
1.02703
1.03251
1.0408
1.04218
1.0416
1.03826
1.03964
1.0401
1.03928
1.0407
1.03779
1.04344
1.0382
1.03912
1.03924
1.03926
1.04043
1.04158
1.04384
1.04612
1.04813
1.05106
1.05263
1.0561
1.0571
1.06124
1.06158
1.06514
1.06639
1.06919
1.07032
1.07329
1.07409
1.07689
1.07816
1.08008
1.08165
1.0837
1.08405
1.08638
1.08849
1.08981
1.09048
1.09167
1.09288
1.09462
1.09516
1.09672
1.09705
1.09854
1.09834
1.09882
1.09919
1.09957
1.09936
1.09948
1.09902
1.09872
1.09832
1.09773
1.09712
1.09629
1.09528
1.09423
1.09292
1.0918
1.09063
1.08927
1.08748
1.08537
1.08332
1.08149
1.07928
1.07681
1.07412
1.07165
1.06859
1.06478
1.06085
1.05718
1.05329
1.04872
1.04427
1.03998
1.03509
1.02974
1.02456
1.01893
1.01316
1.00443
0.995597
0.991677
0.988048
0.980887
0.97318
0.965185
0.957265
0.949322
0.94169
0.932536
0.924218
0.915767
0.908167
0.899427
0.892793
0.885992
0.881435
0.876037
0.874528
0.871511
0.873324
0.878744
0.879114
0.887796
0.890594
0.896752
0.903146
0.910895
0.917648
0.924463
0.93115
0.937734
0.94384
0.951356
0.957063
0.964063
0.969134
0.976064
0.980447
0.987801
0.991952
0.997809
1.00383
1.00935
1.0156
1.02166
1.02793
1.03417
1.04041
1.04826
1.05496
1.06291
1.06962
1.07791
1.08494
1.09335
1.10172
1.10998
1.11927
1.12881
1.13844
1.14952
1.16091
1.17333
1.18627
1.19926
1.21432
1.23018
1.24609
1.2637
1.2808
1.30079
1.31972
1.33985
1.35693
1.37431
1.3813
1.39283
1.37205
1.34841
1.2835
1.21339
1.1258
1.04244
0.964291
0.914673
0.845636
0.789125
0.736062
0.705605
0.662633
0.640014
0.61909
0.608627
0.594729
0.590878
0.58446
0.585125
0.585373
0.586398
0.586459
0.587255
0.588843
0.591251
0.593554
0.596101
0.596659
0.59711
0.597549
0.597661
0.598249
0.598658
0.599718
0.599737
0.600318
0.600009
0.596096
0.592883
0.592681
0.593299
0.594844
0.595308
0.595566
0.596461
0.597587
0.598869
0.597362
0.59249
0.588963
0.583907
0.583824
0.581896
0.581559
0.581968
0.580823
0.578637
0.577391
0.575404
0.573057
0.570002
0.569506
0.56817
0.566342
0.563682
0.568567
0.576228
0.593432
0.660382
0.75536
0.78921
0.79344
0.796719
0.799831
0.804482
0.809645
0.815246
0.820881
0.827395
0.833892
0.840975
0.847743
0.855113
0.861941
0.869465
0.878435
0.88725
0.892561
0.89794
0.905277
0.91333
0.919062
0.924087
0.929869
0.935998
0.941802
0.947326
0.952424
0.957448
0.962237
0.96685
0.971145
0.975279
0.979257
0.982914
0.986287
0.989644
0.992586
0.995422
0.998063
1.00056
1.00285
1.00501
1.00689
1.00878
1.0102
1.01189
1.01306
1.01449
1.01556
1.01668
1.01758
1.01842
1.01921
1.02003
1.02066
1.02104
1.02175
1.02195
1.02263
1.02255
1.02312
1.0229
1.0236
1.02329
1.02415
1.02363
1.02466
1.02403
1.02534
1.02443
1.02545
1.02501
1.02625
1.02538
1.02706
1.02511
1.02692
1.0259
1.02859
1.02544
1.02873
1.02659
1.03039
1.02818
1.03131
1.03076
1.03173
1.03366
1.03405
1.03141
1.03927
1.03762
1.03912
1.0377
1.03679
1.04291
1.04164
1.04176
1.03116
1.02637
1.01922
1.01589
1.00861
1.00822
1.00226
1.00286
1.00561
1.00072
1.00187
0.999547
1.00185
1.00099
1.00446
1.00344
1.00367
1.00467
1.00108
1.00187
0.99939
1.00201
1.00077
1.00554
1.00285
1.00233
1.00803
1.00856
1.01588
1.01899
1.02669
1.03236
1.04065
1.04202
1.0415
1.03803
1.03955
1.0402
1.03854
1.04117
1.03683
1.04085
1.03694
1.04165
1.03838
1.04545
1.04077
1.04846
1.04381
1.0515
1.04774
1.05484
1.0522
1.0584
1.05703
1.06224
1.06159
1.06585
1.0661
1.06944
1.07019
1.07327
1.07406
1.0767
1.07806
1.08001
1.0814
1.0837
1.08388
1.08606
1.0883
1.08989
1.09018
1.09116
1.09259
1.09428
1.09525
1.0959
1.09673
1.09808
1.09801
1.09851
1.09881
1.09925
1.09902
1.09913
1.09884
1.09844
1.09807
1.09756
1.09699
1.09604
1.09504
1.09393
1.09271
1.09164
1.09048
1.08904
1.0873
1.08526
1.08323
1.0813
1.07908
1.07668
1.07406
1.07153
1.06844
1.06473
1.06078
1.05707
1.05316
1.04864
1.04428
1.03995
1.0351
1.02976
1.02452
1.01888
1.01307
1.00445
0.995824
0.991836
0.988129
0.980947
0.97332
0.965365
0.957478
0.949588
0.941918
0.932867
0.924611
0.916185
0.908655
0.899905
0.89345
0.88659
0.882223
0.876587
0.875392
0.872698
0.874755
0.879754
0.879765
0.88851
0.890968
0.897267
0.90378
0.911539
0.918684
0.925983
0.932207
0.938753
0.944222
0.951612
0.95726
0.964173
0.969455
0.97666
0.981223
0.988665
0.992553
0.999056
1.0043
1.00957
1.01638
1.02241
1.02873
1.03541
1.04148
1.04846
1.05531
1.06344
1.07035
1.07822
1.08607
1.09438
1.10277
1.1109
1.11978
1.12936
1.13912
1.15022
1.16168
1.17388
1.18619
1.19942
1.21426
1.22913
1.24519
1.26211
1.2797
1.29861
1.31743
1.3369
1.35316
1.36997
1.37534
1.3852
1.36132
1.33029
1.26831
1.20238
1.11399
1.03818
0.963126
0.914349
0.844349
0.794165
0.744301
0.714761
0.669698
0.647497
0.622615
0.613224
0.600906
0.595185
0.592127
0.589407
0.589207
0.589591
0.590056
0.589896
0.591241
0.593346
0.595608
0.597613
0.598606
0.598694
0.599271
0.599131
0.599583
0.599815
0.600689
0.600861
0.601217
0.600325
0.597423
0.594064
0.59366
0.594037
0.59524
0.595772
0.596263
0.596893
0.598224
0.599264
0.59792
0.593159
0.589679
0.584145
0.584102
0.582254
0.58207
0.582122
0.580867
0.579636
0.578027
0.575103
0.573623
0.571365
0.569929
0.567737
0.567259
0.564579
0.568579
0.576204
0.592771
0.659624
0.756828
0.79081
0.794431
0.797095
0.800175
0.804771
0.809886
0.815578
0.82115
0.827637
0.834153
0.841157
0.847911
0.855248
0.862092
0.869581
0.878515
0.887278
0.892671
0.898067
0.905411
0.913318
0.919192
0.924278
0.929949
0.936173
0.941815
0.947287
0.952418
0.95731
0.962181
0.96691
0.971244
0.975453
0.979262
0.982915
0.986314
0.989461
0.992628
0.995456
0.998164
1.00055
1.00293
1.00485
1.00692
1.00863
1.01034
1.0118
1.01328
1.0144
1.01569
1.01657
1.01758
1.01829
1.0192
1.01994
1.02075
1.02102
1.02183
1.02202
1.02264
1.02259
1.02306
1.02295
1.02356
1.02333
1.02417
1.02375
1.02464
1.02413
1.02531
1.02443
1.02563
1.02528
1.02638
1.02538
1.02771
1.0253
1.02728
1.02641
1.02901
1.02586
1.02944
1.0271
1.03097
1.02877
1.03215
1.03114
1.0334
1.03387
1.03698
1.03342
1.0396
1.03854
1.03934
1.03964
1.03761
1.04322
1.04201
1.04108
1.03141
1.02704
1.01894
1.01624
1.00813
1.0088
1.00193
1.00355
1.00517
1.00122
1.00224
1.00031
1.00131
1.0012
1.00454
1.00342
1.00319
1.00416
1.00164
1.00141
1.00022
1.00223
1.00124
1.00501
1.00368
1.00202
1.0088
1.00833
1.01649
1.01888
1.02705
1.03258
1.04051
1.04225
1.04142
1.03857
1.04014
1.04046
1.03961
1.04151
1.03884
1.04365
1.03908
1.04105
1.04055
1.04181
1.04242
1.04426
1.04561
1.04797
1.04939
1.05226
1.05335
1.05661
1.05741
1.06097
1.06183
1.06456
1.06621
1.0688
1.06982
1.07288
1.0733
1.0763
1.07759
1.07915
1.08117
1.08358
1.08314
1.08545
1.08814
1.08991
1.09014
1.09069
1.09183
1.09394
1.09468
1.09592
1.09601
1.09776
1.0975
1.09803
1.09833
1.09872
1.0986
1.09877
1.09846
1.09815
1.09769
1.09723
1.09676
1.09579
1.09473
1.0937
1.0925
1.09145
1.09022
1.08875
1.08696
1.08504
1.08307
1.08111
1.07881
1.07648
1.07391
1.07135
1.06819
1.06449
1.06071
1.05698
1.05304
1.0486
1.04419
1.03982
1.03497
1.02972
1.02452
1.0189
1.0131
1.00452
0.996056
0.99205
0.988061
0.981
0.973516
0.965619
0.957792
0.94992
0.942309
0.933267
0.925118
0.916755
0.909157
0.900598
0.894105
0.887445
0.882815
0.877666
0.876135
0.873275
0.875086
0.880293
0.880873
0.889125
0.892131
0.898307
0.904415
0.912191
0.918796
0.92553
0.932369
0.938752
0.944844
0.952342
0.958079
0.965033
0.970172
0.97697
0.981438
0.988645
0.992997
0.998815
1.005
1.01077
1.01686
1.02303
1.02924
1.03554
1.04178
1.04976
1.05652
1.06448
1.07145
1.07969
1.08679
1.09515
1.1035
1.11204
1.12163
1.13131
1.14118
1.15209
1.16338
1.17575
1.18893
1.20203
1.21666
1.23204
1.2476
1.26459
1.28095
1.29958
1.31684
1.33486
1.34985
1.36448
1.36836
1.37762
1.35615
1.33187
1.28259
1.22264
1.14689
1.07345
0.998271
0.944389
0.879009
0.825153
0.769588
0.736286
0.688976
0.663439
0.64093
0.625871
0.610927
0.603242
0.594257
0.593679
0.59365
0.592531
0.591336
0.592024
0.593936
0.59511
0.598311
0.599405
0.600531
0.600586
0.600827
0.600516
0.601071
0.601058
0.602061
0.601956
0.602477
0.602532
0.59808
0.594654
0.594312
0.594974
0.596103
0.596393
0.596785
0.597403
0.599004
0.599977
0.598704
0.59401
0.590628
0.585629
0.585018
0.582964
0.582966
0.582719
0.581107
0.579895
0.579065
0.575871
0.573545
0.571652
0.571107
0.568509
0.567091
0.564893
0.568906
0.576273
0.59207
0.658835
0.758922
0.792573
0.795189
0.797427
0.800458
0.805184
0.810317
0.815827
0.821415
0.827928
0.834405
0.84145
0.848166
0.855515
0.862385
0.869878
0.878624
0.88735
0.892797
0.898265
0.905443
0.913412
0.919164
0.924223
0.930028
0.936097
0.941881
0.947413
0.952556
0.957558
0.962272
0.966928
0.971217
0.975215
0.979272
0.983032
0.986345
0.989668
0.992611
0.995494
0.998083
1.00056
1.00285
1.0051
1.00688
1.00883
1.01015
1.01191
1.01303
1.01451
1.01562
1.01679
1.01761
1.01847
1.01916
1.02006
1.02066
1.02101
1.02177
1.02197
1.02258
1.02252
1.02313
1.02295
1.0236
1.02333
1.02418
1.02377
1.02468
1.02413
1.0253
1.02457
1.02585
1.0251
1.02638
1.02557
1.02713
1.02582
1.02774
1.02637
1.02858
1.02668
1.02954
1.02758
1.03077
1.02912
1.03208
1.03097
1.03341
1.03373
1.03461
1.03173
1.03978
1.03797
1.03897
1.03746
1.03656
1.04332
1.04171
1.04161
1.03138
1.02652
1.01932
1.01581
1.00852
1.00816
1.00227
1.00283
1.00566
1.00074
1.00184
0.999576
1.00181
1.00107
1.00446
1.00344
1.00353
1.00473
1.00098
1.00183
0.99936
1.00211
1.00076
1.0056
1.00284
1.00234
1.00809
1.00863
1.01582
1.01884
1.02682
1.03266
1.04032
1.0423
1.0413
1.03821
1.03983
1.04046
1.039
1.04171
1.03775
1.04205
1.03851
1.04336
1.04018
1.04614
1.04276
1.04902
1.04578
1.05212
1.04948
1.05534
1.05335
1.05847
1.05749
1.06207
1.06169
1.06542
1.06606
1.06895
1.0698
1.07283
1.07345
1.07616
1.07741
1.07932
1.08111
1.08319
1.08323
1.08543
1.08754
1.08931
1.08981
1.09051
1.09135
1.09359
1.09445
1.0952
1.0958
1.0971
1.09724
1.09765
1.09787
1.09837
1.09828
1.0983
1.09825
1.09782
1.09749
1.09693
1.09654
1.09546
1.09441
1.09339
1.09229
1.09122
1.08998
1.08846
1.08677
1.0849
1.08291
1.08085
1.07859
1.07632
1.07382
1.07118
1.06801
1.06445
1.06062
1.05684
1.05288
1.0485
1.04419
1.03979
1.035
1.02974
1.02445
1.01884
1.01298
1.00453
0.996321
0.992233
0.988172
0.981081
0.973684
0.96583
0.958043
0.950237
0.942575
0.933664
0.92558
0.91731
0.909666
0.901334
0.894712
0.888332
0.883458
0.878693
0.876705
0.87459
0.87667
0.881424
0.881481
0.88983
0.892426
0.898683
0.90498
0.912776
0.919725
0.92717
0.933467
0.939931
0.945208
0.952554
0.958059
0.965125
0.970453
0.977759
0.982183
0.989602
0.99351
1.00001
1.00537
1.01071
1.01756
1.02375
1.03002
1.03698
1.04314
1.05027
1.057
1.06515
1.07199
1.07977
1.08775
1.09616
1.10482
1.11319
1.12209
1.13155
1.14148
1.15248
1.16413
1.17634
1.1885
1.20154
1.21626
1.23077
1.24635
1.26239
1.2791
1.29667
1.31379
1.33096
1.34528
1.35892
1.36214
1.36999
1.34755
1.32219
1.26593
1.21244
1.13505
1.06734
0.994505
0.943145
0.877495
0.829308
0.775733
0.743075
0.695663
0.671973
0.643273
0.630496
0.615895
0.609765
0.60059
0.598459
0.598439
0.597559
0.595981
0.59456
0.59605
0.597415
0.600113
0.601251
0.602392
0.602294
0.602825
0.602632
0.601759
0.602172
0.603179
0.603224
0.603397
0.602643
0.600575
0.596041
0.595175
0.595766
0.596514
0.596964
0.59748
0.598072
0.599296
0.600419
0.599523
0.594737
0.591308
0.586056
0.585485
0.583314
0.58301
0.58342
0.582188
0.579834
0.578635
0.577139
0.574924
0.571313
0.570862
0.569798
0.568581
0.565021
0.568806
0.576248
0.59109
0.65785
0.76132
0.794346
0.796319
0.797906
0.800902
0.80555
0.810648
0.816279
0.821761
0.828242
0.834751
0.841701
0.848396
0.8557
0.862586
0.87003
0.878742
0.887387
0.892942
0.898434
0.90562
0.913393
0.919353
0.924477
0.930115
0.936329
0.941892
0.947337
0.952523
0.957353
0.962183
0.966988
0.97137
0.975502
0.979239
0.982996
0.986395
0.989375
0.992642
0.995535
0.998253
1.00057
1.00295
1.00482
1.00695
1.00856
1.01041
1.01178
1.01336
1.01436
1.01576
1.01658
1.01761
1.01827
1.01922
1.01987
1.02078
1.02108
1.02188
1.02207
1.02272
1.02264
1.02319
1.02302
1.02368
1.02338
1.02423
1.0238
1.02476
1.02418
1.02532
1.02465
1.02593
1.02498
1.0266
1.02585
1.02722
1.02589
1.02853
1.02632
1.02873
1.0269
1.03028
1.02751
1.03116
1.02892
1.03263
1.03069
1.0341
1.03277
1.03608
1.0332
1.04006
1.03889
1.0394
1.03955
1.03726
1.04377
1.04211
1.04083
1.03159
1.02711
1.01871
1.01624
1.00818
1.0088
1.0019
1.00354
1.00518
1.00122
1.00215
1.00022
1.00126
1.0012
1.00448
1.00342
1.00343
1.00393
1.00157
1.00146
1.00025
1.00221
1.00124
1.00499
1.00369
1.0021
1.00885
1.00834
1.01654
1.0188
1.02718
1.03277
1.04006
1.04252
1.04114
1.03916
1.04022
1.04022
1.04039
1.04213
1.04001
1.04397
1.04005
1.04281
1.04181
1.04394
1.04411
1.04628
1.04709
1.04968
1.0504
1.05352
1.05407
1.05718
1.05789
1.06109
1.06195
1.06459
1.06571
1.06864
1.06946
1.07239
1.07296
1.07572
1.07698
1.07887
1.08041
1.08307
1.08302
1.08526
1.08694
1.08874
1.08912
1.09012
1.09104
1.0931
1.0941
1.0949
1.09496
1.09658
1.0968
1.09718
1.09746
1.09781
1.09771
1.09799
1.09767
1.09754
1.097
1.09672
1.09612
1.09507
1.09409
1.09313
1.09202
1.09095
1.08961
1.08812
1.08644
1.08465
1.08267
1.08059
1.07829
1.07612
1.07362
1.07093
1.06772
1.06416
1.06052
1.0567
1.05273
1.04846
1.04406
1.03962
1.03483
1.02966
1.02444
1.01886
1.01303
1.0046
0.996548
0.992474
0.988109
0.981141
0.973908
0.96612
0.958395
0.950621
0.94298
0.934173
0.926089
0.917895
0.910193
0.901999
0.89536
0.889125
0.884208
0.879729
0.877415
0.875186
0.876875
0.881868
0.882625
0.890658
0.893628
0.899854
0.905769
0.913521
0.919955
0.92659
0.9337
0.939737
0.94596
0.953311
0.959108
0.966064
0.971192
0.977911
0.98239
0.989487
0.993994
0.999851
1.00619
1.01218
1.0182
1.02449
1.03063
1.03707
1.04319
1.05134
1.05808
1.06607
1.07328
1.08144
1.08866
1.09709
1.10521
1.11407
1.12379
1.13374
1.14378
1.15455
1.16563
1.17791
1.19102
1.20423
1.21807
1.23315
1.24809
1.26428
1.2797
1.29683
1.31238
1.3282
1.34115
1.35279
1.35498
1.36214
1.34071
1.31766
1.27781
1.22515
1.15962
1.09472
1.02445
0.970487
0.907611
0.855196
0.799193
0.763807
0.715765
0.687983
0.661301
0.643696
0.627483
0.615792
0.605655
0.602011
0.598451
0.600239
0.599709
0.598694
0.598409
0.599993
0.601518
0.60346