/*--------------------------------*- C++ -*----------------------------------*\
| =========                 |                                                 |
| \\      /  F ield         | OpenFOAM: The Open Source CFD Toolbox           |
|  \\    /   O peration     | Version:  v2006                                 |
|   \\  /    A nd           | Website:  www.openfoam.com                      |
|    \\/     M anipulation  |                                                 |
\*---------------------------------------------------------------------------*/
FoamFile
{
    version     2.0;
    format      ascii;
    class       volScalarField;
    location    "40";
    object      rho;
}
// * * * * * * * * * * * * * * * * * * * * * * * * * * * * * * * * * * * * * //

dimensions      [1 -3 0 0 0 0 0];


internalField   nonuniform List<scalar> 
93840
(
1.00248
1.00321
1.0008
1.0014
0.999613
1.00142
1.00051
1.004
1.00216
1.00145
1.00569
1.00614
1.01128
1.01391
1.01884
1.02245
1.02934
1.02982
1.02966
1.02534
1.02464
1.02006
1.00798
1.00275
0.998432
0.996977
1.0018
1.00743
1.00192
1.00747
0.99475
1.01672
0.988281
1.00465
0.999776
1.01014
1.00588
1.01423
1.0111
1.01823
1.01529
1.021
1.01881
1.02345
1.02199
1.02609
1.02525
1.02843
1.02772
1.03078
1.03047
1.03257
1.03309
1.03616
1.03547
1.03535
1.03548
1.03802
1.03883
1.04017
1.03946
1.04089
1.04164
1.04223
1.04146
1.04235
1.04208
1.04203
1.04178
1.04159
1.04081
1.04055
1.04
1.03933
1.03852
1.0376
1.03672
1.03577
1.03454
1.03343
1.03217
1.03106
1.02952
1.02758
1.02534
1.02375
1.02195
1.01983
1.01713
1.01496
1.01243
1.00916
1.00558
1.00245
0.999269
0.995253
0.991397
0.987864
0.983702
0.979127
0.974783
0.970211
0.965371
0.95823
0.950827
0.947766
0.944959
0.938995
0.932481
0.926118
0.919738
0.913556
0.907563
0.900552
0.89409
0.887834
0.882308
0.875917
0.871213
0.866487
0.863755
0.860103
0.859879
0.858409
0.861061
0.865994
0.867136
0.875413
0.877846
0.883944
0.889931
0.89675
0.903093
0.909144
0.914873
0.920892
0.926357
0.932879
0.937996
0.943949
0.948334
0.954386
0.958567
0.964986
0.968528
0.974119
0.978866
0.983706
0.989433
0.994651
1.00005
1.00539
1.01063
1.01681
1.02233
1.02877
1.0343
1.04104
1.04703
1.05407
1.06007
1.06624
1.0729
1.08029
1.08752
1.09616
1.10452
1.11373
1.1222
1.13123
1.14194
1.15364
1.16466
1.17602
1.18832
1.20217
1.21735
1.23523
1.2519
1.26868
1.27999
1.29418
1.27472
1.23469
1.14152
1.05785
0.945461
0.880307
0.842002
0.83559
0.769283
0.725254
0.696034
0.683684
0.653162
0.644665
0.634265
0.631846
0.622979
0.621679
0.623021
0.622389
0.622649
0.622051
0.622226
0.623083
0.624178
0.624822
0.626656
0.626601
0.625842
0.625372
0.624578
0.623857
0.623752
0.623472
0.62248
0.621953
0.620864
0.619261
0.614825
0.61234
0.611382
0.610994
0.61072
0.610566
0.609563
0.609946
0.609358
0.609669
0.606796
0.602335
0.598627
0.594287
0.593055
0.59156
0.589978
0.590059
0.587809
0.586219
0.584029
0.582074
0.578946
0.576855
0.5754
0.573814
0.571231
0.569106
0.573071
0.577731
0.59197
0.638823
0.702962
0.730149
0.738596
0.745053
0.749853
0.755321
0.760831
0.766633
0.772176
0.778189
0.784094
0.790395
0.796417
0.80281
0.808639
0.814986
0.822607
0.83011
0.834725
0.839252
0.84554
0.85235
0.857329
0.861598
0.866423
0.871668
0.876539
0.881151
0.885416
0.889632
0.893685
0.89754
0.901126
0.904672
0.90785
0.910813
0.913594
0.916324
0.918711
0.920969
0.923122
0.925149
0.926983
0.928657
0.93032
0.931808
0.93328
0.934514
0.935671
0.936638
0.937411
0.93822
0.938953
0.939472
0.940211
0.940362
0.940877
0.941165
0.94166
0.942035
0.943761
0.947437
0.949629
0.949803
0.949589
0.948767
0.948677
0.947497
0.947368
0.945799
0.946027
0.944946
0.945111
0.944124
0.944373
0.943106
0.94389
0.942182
0.943772
0.942084
0.944701
0.941317
0.943881
0.937427
0.942773
0.955026
0.966391
0.977688
0.983327
1.00417
1.01176
1.00363
1.0023
1.00598
1.01909
1.02601
1.02688
1.02971
1.03004
1.02915
1.02239
1.01907
1.01355
1.01227
1.00604
1.00617
1.00147
1.00264
1.00381
1.00104
1.00163
1.00012
1.00098
1.00097
1.00312
1.00242
1.00251
1.00319
1.00099
1.00097
1.00021
1.00151
1.00108
1.00381
1.00263
1.00142
1.00628
1.00636
1.012
1.01359
1.01914
1.02265
1.02912
1.03009
1.02969
1.02697
1.02773
1.02337
1.01213
1.00499
1.00376
1.00487
0.996187
0.995814
0.996939
0.994297
0.997294
0.994345
0.998297
1.00121
1.00323
1.00728
1.00771
1.01176
1.01218
1.01579
1.01578
1.01897
1.01894
1.0218
1.02166
1.0246
1.02436
1.02705
1.02675
1.02939
1.02938
1.03112
1.03169
1.03414
1.03376
1.03388
1.03418
1.03643
1.03714
1.03826
1.03783
1.03919
1.03979
1.04057
1.04003
1.04087
1.04064
1.0408
1.04048
1.04038
1.03964
1.03939
1.03886
1.0382
1.03738
1.0365
1.03565
1.03474
1.03358
1.03252
1.03133
1.03032
1.02895
1.02715
1.02506
1.0236
1.02198
1.02004
1.01741
1.01539
1.01309
1.01006
1.0066
1.00367
1.00076
0.996966
0.993309
0.990043
0.98619
0.981875
0.97788
0.973634
0.969108
0.962627
0.955747
0.952817
0.950175
0.944824
0.938886
0.933123
0.927278
0.921698
0.916277
0.910001
0.904179
0.8986
0.893648
0.887978
0.883769
0.879622
0.877241
0.874116
0.874004
0.872817
0.875248
0.8802
0.881441
0.889239
0.89185
0.897632
0.903334
0.909968
0.915972
0.921931
0.927504
0.933377
0.938609
0.945028
0.949933
0.955783
0.960104
0.965981
0.969925
0.976108
0.979606
0.984912
0.989719
0.994325
0.999738
1.0047
1.00991
1.015
1.01999
1.02589
1.03101
1.03706
1.04212
1.04835
1.05366
1.06005
1.06574
1.0714
1.07745
1.084
1.09043
1.09811
1.10559
1.11382
1.12175
1.13001
1.14006
1.15093
1.16162
1.1728
1.18401
1.19754
1.20992
1.22387
1.23623
1.25065
1.25597
1.27199
1.26387
1.23252
1.17098
1.11016
1.0257
0.95796
0.905985
0.88358
0.827697
0.783359
0.744467
0.729713
0.699604
0.689246
0.677524
0.673124
0.663394
0.661596
0.661734
0.661453
0.661386
0.660256
0.659442
0.659689
0.660035
0.65994
0.660794
0.660108
0.658489
0.657539
0.655849
0.654518
0.653582
0.652882
0.65116
0.650336
0.648638
0.646687
0.641628
0.639046
0.637321
0.636721
0.635768
0.635448
0.6338
0.633917
0.632651
0.632858
0.629549
0.624959
0.620706
0.616457
0.614696
0.613166
0.611154
0.610971
0.608126
0.60711
0.604209
0.601856
0.598637
0.596996
0.594458
0.592976
0.590162
0.5886
0.591399
0.59628
0.610402
0.65445
0.713858
0.737586
0.744568
0.7503
0.754672
0.759844
0.764995
0.770488
0.775758
0.781468
0.78704
0.79299
0.798665
0.804699
0.810218
0.816256
0.823334
0.83029
0.83464
0.839008
0.844935
0.851243
0.855955
0.860055
0.864682
0.869629
0.874293
0.878664
0.882755
0.88681
0.890684
0.894364
0.897843
0.901262
0.904316
0.907195
0.909945
0.912575
0.914893
0.917137
0.919249
0.921222
0.923037
0.924694
0.926307
0.927776
0.929162
0.930391
0.931559
0.932628
0.933493
0.934404
0.935174
0.935813
0.936614
0.936937
0.937535
0.937921
0.938406
0.938698
0.939433
0.940799
0.94229
0.942637
0.943007
0.942471
0.942709
0.941993
0.9424
0.941515
0.942119
0.941168
0.941519
0.940488
0.941224
0.940554
0.941177
0.940201
0.942099
0.938263
0.941614
0.938629
0.941696
0.932864
0.947046
0.941098
0.94971
0.954746
0.960497
0.980481
0.992437
0.996848
1.00208
1.00221
1.01454
1.02314
1.02511
1.02966
1.02971
1.02948
1.02234
1.01889
1.01379
1.011
1.00606
1.00571
1.00137
1.00217
1.00402
1.00053
1.00145
0.999614
1.00139
1.0008
1.00324
1.0025
1.00257
1.00326
1.00083
1.00137
0.99958
1.00142
1.00058
1.004
1.00207
1.00132
1.00547
1.0059
1.01109
1.01385
1.01875
1.02222
1.02917
1.02997
1.0295
1.02561
1.02651
1.02471
1.01649
1.00685
1.00279
1.00499
0.998514
1.00301
0.996644
1.00617
0.996536
1.01042
0.997532
1.00898
1.00269
1.01142
1.00724
1.01442
1.01178
1.01735
1.01582
1.01973
1.01919
1.02222
1.022
1.0248
1.02469
1.02708
1.02711
1.02931
1.02941
1.03119
1.03171
1.0339
1.03393
1.03417
1.03431
1.03626
1.03698
1.03832
1.03803
1.03929
1.04
1.04085
1.04024
1.04103
1.04104
1.04116
1.04093
1.04093
1.04017
1.03994
1.0394
1.0388
1.038
1.03718
1.0364
1.03558
1.03451
1.03352
1.03248
1.03156
1.03031
1.02854
1.02656
1.02521
1.02376
1.02184
1.01931
1.01744
1.0153
1.01238
1.00905
1.00631
1.00358
0.999943
0.996518
0.993478
0.989864
0.985779
0.982075
0.978088
0.973835
0.967727
0.961218
0.958593
0.956245
0.951286
0.945769
0.940447
0.935018
0.929884
0.924874
0.919055
0.913616
0.908434
0.90381
0.898452
0.894455
0.890512
0.888242
0.885163
0.885035
0.883918
0.886246
0.891049
0.891986
0.899689
0.902083
0.907709
0.913292
0.919741
0.925766
0.931694
0.936858
0.942538
0.947357
0.95359
0.958226
0.963844
0.967964
0.973701
0.977427
0.983422
0.986641
0.991927
0.996154
1.00054
1.00574
1.01038
1.01517
1.02007
1.02461
1.02995
1.0349
1.04075
1.0457
1.0516
1.05694
1.06304
1.06836
1.07388
1.07992
1.08651
1.09299
1.10083
1.10843
1.11684
1.12515
1.13363
1.14362
1.15423
1.16521
1.1769
1.18943
1.20277
1.21752
1.23376
1.24872
1.26602
1.27224
1.28263
1.26799
1.23424
1.17915
1.11427
1.02717
0.961877
0.910818
0.888609
0.830526
0.787005
0.754419
0.736896
0.706275
0.693821
0.682049
0.679412
0.670097
0.669542
0.670505
0.671141
0.671941
0.672606
0.673262
0.675318
0.676961
0.678132
0.679929
0.680675
0.679536
0.67967
0.678591
0.677491
0.676431
0.676261
0.674512
0.673924
0.671777
0.670089
0.665003
0.661805
0.659906
0.659504
0.658293
0.658231
0.655912
0.656113
0.654621
0.654878
0.650721
0.646413
0.641517
0.63717
0.634768
0.633422
0.630828
0.631032
0.62766
0.626248
0.622765
0.621555
0.616932
0.615197
0.612383
0.612008
0.607316
0.606757
0.607543
0.615531
0.624628
0.666478
0.730023
0.750965
0.756042
0.760489
0.763929
0.768361
0.772819
0.777745
0.782503
0.787781
0.792886
0.798372
0.803608
0.809244
0.814372
0.820021
0.826637
0.833172
0.837234
0.841296
0.846875
0.852786
0.857277
0.861159
0.86554
0.870239
0.874688
0.878841
0.882757
0.886636
0.890374
0.893909
0.897278
0.900593
0.903526
0.906301
0.909003
0.911537
0.913816
0.916007
0.918088
0.919989
0.921775
0.923358
0.924958
0.926355
0.927698
0.928882
0.930031
0.931076
0.931984
0.932887
0.933683
0.934358
0.935133
0.935588
0.936162
0.936572
0.937085
0.937372
0.937858
0.938456
0.939255
0.939728
0.940257
0.940144
0.940548
0.940125
0.940662
0.940115
0.940727
0.939902
0.94054
0.939724
0.940545
0.939788
0.940757
0.939424
0.941804
0.938171
0.940875
0.939684
0.942048
0.937498
0.942665
0.940966
0.94544
0.950271
0.954706
0.964132
0.980549
0.989609
1.00023
1.00059
1.012
1.02328
1.02609
1.02986
1.02991
1.02911
1.02236
1.01902
1.0134
1.01227
1.00596
1.00627
1.00145
1.00256
1.0038
1.001
1.00152
1.00017
1.00096
1.0009
1.00319
1.00247
1.00228
1.00304
1.00107
1.00089
1.00021
1.00156
1.00108
1.00378
1.00261
1.00141
1.00635
1.00641
1.01201
1.01362
1.01925
1.0228
1.02904
1.0299
1.02948
1.02699
1.02784
1.02638
1.0187
1.01097
1.00487
1.00873
1.00186
1.00164
1.00126
0.999655
1.00092
1.00051
1.00298
1.00444
1.00628
1.00866
1.01004
1.01248
1.01361
1.01643
1.01654
1.01963
1.01955
1.02245
1.02222
1.02506
1.02494
1.02731
1.02752
1.02954
1.02991
1.03139
1.03183
1.03382
1.03413
1.0348
1.03509
1.03681
1.03756
1.03867
1.03871
1.04012
1.0404
1.04132
1.04103
1.04161
1.0416
1.04192
1.04154
1.0416
1.04094
1.04072
1.04024
1.0397
1.03902
1.03836
1.03765
1.03688
1.03584
1.03489
1.03395
1.03307
1.03176
1.03002
1.02831
1.02711
1.02558
1.02362
1.0213
1.01962
1.01747
1.01462
1.01151
1.00895
1.00628
1.00282
0.999608
0.996705
0.993259
0.989423
0.985965
0.982135
0.978138
0.972359
0.966185
0.963747
0.961523
0.956923
0.951783
0.946776
0.941665
0.936823
0.932116
0.926564
0.921373
0.91639
0.911873
0.906685
0.902686
0.898841
0.896427
0.893476
0.893067
0.891853
0.893807
0.898713
0.899559
0.906953
0.909377
0.914706
0.920004
0.926339
0.931908
0.937584
0.942824
0.948281
0.953151
0.95916
0.963591
0.969064
0.973004
0.978477
0.981827
0.987499
0.990577
0.995167
0.999554
1.00357
1.00826
1.01261
1.01713
1.02156
1.02594
1.03134
1.03598
1.0415
1.04602
1.05171
1.05665
1.06259
1.06819
1.07361
1.07986
1.08626
1.09274
1.10052
1.10833
1.11662
1.1252
1.13362
1.14388
1.15462
1.16561
1.17726
1.18897
1.20248
1.21633
1.2299
1.24489
1.25568
1.26293
1.27709
1.26236
1.24338
1.19049
1.13689
1.06371
1.00233
0.944331
0.914541
0.860954
0.816939
0.774924
0.757488
0.723286
0.711137
0.694494
0.690471
0.67909
0.678118
0.676177
0.677709
0.67868
0.678906
0.679471
0.680776
0.682771
0.684959
0.687064
0.688713
0.68883
0.690031
0.689728
0.690214
0.689518
0.690513
0.689445
0.689789
0.688488
0.68738
0.682172
0.679841
0.677415
0.677259
0.67591
0.675912
0.67345
0.673689
0.671958
0.672443
0.668399
0.663851
0.658414
0.654096
0.651475
0.650004
0.647089
0.647254
0.643533
0.642569
0.638324
0.636714
0.632392
0.630861
0.626723
0.626638
0.621955
0.621836
0.621392
0.630434
0.637951
0.679491
0.744764
0.764501
0.768302
0.771714
0.774264
0.777987
0.781739
0.785964
0.790161
0.795002
0.799592
0.804647
0.809411
0.814662
0.81941
0.824706
0.830826
0.836894
0.840705
0.844527
0.849734
0.855259
0.859455
0.863139
0.867348
0.871729
0.87601
0.879983
0.883714
0.887448
0.891019
0.894382
0.897605
0.900776
0.903662
0.906356
0.908961
0.911468
0.913638
0.915772
0.917782
0.919656
0.921371
0.922975
0.924453
0.925874
0.927054
0.928291
0.929294
0.930411
0.931265
0.932217
0.932958
0.933684
0.934387
0.934929
0.935481
0.935911
0.936384
0.936676
0.937179
0.937466
0.938194
0.938385
0.939053
0.938933
0.939499
0.939099
0.939771
0.939093
0.939918
0.939298
0.939944
0.939406
0.940313
0.938762
0.94005
0.939376
0.94057
0.938336
0.940931
0.938492
0.941844
0.93691
0.942304
0.939917
0.943868
0.944584
0.94768
0.955123
0.962868
0.975808
0.995729
0.997596
1.0091
1.01991
1.02433
1.02981
1.02953
1.0296
1.02224
1.01893
1.01399
1.01095
1.00633
1.00587
1.00147
1.00222
1.00402
1.00053
1.00149
0.999678
1.00138
1.0008
1.00322
1.00245
1.00264
1.00327
1.00076
1.00134
0.99959
1.00151
1.00059
1.00407
1.00203
1.00142
1.00559
1.00588
1.01136
1.01346
1.01895
1.02238
1.02899
1.0298
1.02936
1.02636
1.02775
1.02709
1.02205
1.01351
1.00621
1.00875
1.00204
1.00589
1.00149
1.00813
1.00201
1.01014
1.00337
1.01144
1.00645
1.01361
1.01
1.01603
1.01393
1.01858
1.01744
1.02107
1.02045
1.02359
1.02317
1.026
1.02589
1.02809
1.02856
1.03026
1.03067
1.03242
1.03263
1.03453
1.03519
1.0361
1.0361
1.03759
1.03846
1.03975
1.03992
1.04084
1.04129
1.04226
1.04185
1.04248
1.0426
1.04286
1.04254
1.04267
1.04204
1.04185
1.04141
1.041
1.04042
1.03979
1.03917
1.03839
1.0374
1.03655
1.03574
1.03486
1.03358
1.03193
1.03035
1.02918
1.02766
1.02578
1.02363
1.02203
1.01992
1.0172
1.01422
1.01182
1.00921
1.00592
1.00295
1.00018
0.996916
0.993283
0.989994
0.986328
0.982537
0.97702
0.971172
0.968943
0.966914
0.962517
0.957656
0.952877
0.947998
0.94336
0.938805
0.933408
0.928313
0.923373
0.918885
0.913615
0.909616
0.905621
0.903174
0.899922
0.899549
0.898302
0.900224
0.904747
0.905229
0.912565
0.914619
0.919979
0.925152
0.931342
0.937052
0.942784
0.947516
0.952802
0.957066
0.962891
0.967083
0.972304
0.97613
0.981483
0.984805
0.990392
0.993194
0.997944
1.00163
1.00554
1.01041
1.01476
1.01918
1.02381
1.02799
1.03296
1.03781
1.04359
1.04847
1.05403
1.05928
1.06519
1.07079
1.07623
1.08236
1.08896
1.09545
1.10312
1.11073
1.11908
1.1278
1.13657
1.14645
1.15643
1.16747
1.17891
1.19138
1.20382
1.21793
1.23074
1.2442
1.2565
1.26249
1.27263
1.25531
1.23264
1.18542
1.13046
1.05931
0.999118
0.944264
0.915442
0.860145
0.819156
0.781862
0.762513
0.728169
0.71257
0.695899
0.691888
0.681122
0.679837
0.677269
0.678501
0.678444
0.6787
0.678986
0.680302
0.681934
0.684345
0.686583
0.688259
0.688882
0.689677
0.689951
0.690468
0.69064
0.691543
0.691332
0.692855
0.691646
0.692394
0.688323
0.686573
0.685145
0.686306
0.685541
0.686672
0.685042
0.686024
0.684755
0.685805
0.681538
0.677721
0.672278
0.667974
0.66508
0.663942
0.661045
0.661204
0.657079
0.656622
0.652398
0.650398
0.645661
0.644531
0.640621
0.639554
0.635433
0.634343
0.635316
0.64132
0.650375
0.692129
0.758083
0.780324
0.782711
0.784782
0.786427
0.789366
0.792361
0.79592
0.799435
0.803779
0.807825
0.81234
0.816572
0.821363
0.825659
0.830496
0.836148
0.841751
0.84528
0.848732
0.853588
0.858648
0.862613
0.866059
0.869952
0.874071
0.878034
0.881755
0.885272
0.888731
0.892184
0.895419
0.898483
0.901561
0.904274
0.906822
0.909332
0.911684
0.913875
0.915913
0.91789
0.919664
0.921363
0.922801
0.924318
0.925603
0.926851
0.927963
0.929041
0.92998
0.930896
0.931715
0.932487
0.933153
0.933864
0.934445
0.935013
0.935385
0.935931
0.936195
0.93663
0.936803
0.937256
0.937497
0.938075
0.938087
0.938664
0.93841
0.939083
0.93852
0.939374
0.938876
0.93952
0.938899
0.940255
0.938669
0.940083
0.93928
0.940631
0.938351
0.941532
0.938481
0.941418
0.938788
0.942816
0.940211
0.943521
0.944693
0.948351
0.950911
0.958894
0.968103
0.989699
0.995694
1.0059
1.01956
1.02515
1.0299
1.0299
1.02908
1.02231
1.01917
1.01366
1.01241
1.0057
1.00619
1.00135
1.00246
1.00383
1.00103
1.00146
1.00021
1.00094
1.00092
1.00314
1.00242
1.00221
1.00312
1.0011
1.00089
1.00018
1.00148
1.001
1.00378
1.00262
1.0014
1.00636
1.00633
1.01189
1.01395
1.01933
1.02304
1.02889
1.02987
1.02932
1.02695
1.02801
1.02787
1.02457
1.0183
1.0085
1.01253
1.00619
1.00559
1.00567
1.00414
1.00585
1.00515
1.00778
1.0081
1.01031
1.01153
1.01301
1.01509
1.01576
1.01865
1.0186
1.02129
1.02173
1.02399
1.02426
1.02669
1.02671
1.02902
1.02939
1.03105
1.03172
1.03339
1.0333
1.03516
1.03632
1.03747
1.0377
1.03876
1.03938
1.04075
1.0409
1.04211
1.04214
1.04331
1.04302
1.04351
1.0436
1.04398
1.04364
1.04379
1.04332
1.04314
1.04279
1.04242
1.04202
1.04155
1.04089
1.04013
1.03918
1.03844
1.03769
1.03679
1.03546
1.03394
1.0326
1.03146
1.02986
1.02806
1.02613
1.02464
1.0225
1.01991
1.01719
1.01492
1.01236
1.00929
1.00647
1.00381
1.00071
0.997315
0.994231
0.990707
0.987141
0.981845
0.976293
0.974214
0.972183
0.968049
0.963437
0.958811
0.954087
0.949518
0.945059
0.939629
0.934565
0.929557
0.924917
0.919574
0.915381
0.911318
0.908548
0.905377
0.904589
0.903075
0.904621
0.909179
0.909667
0.916516
0.918765
0.923704
0.928441
0.93442
0.93942
0.944682
0.949539
0.9544
0.958724
0.964222
0.968194
0.973227
0.976796
0.981879
0.984975
0.990327
0.993238
0.997459
1.00173
1.00563
1.01002
1.01439
1.01894
1.02339
1.02769
1.03328
1.038
1.04334
1.04806
1.054
1.05892
1.06461
1.07056
1.07627
1.08281
1.08919
1.09587
1.10336
1.11131
1.11955
1.12849
1.13707
1.14765
1.15755
1.16861
1.17999
1.19214
1.20408
1.218
1.2295
1.24193
1.25273
1.25732
1.26788
1.25455
1.23983
1.19584
1.14947
1.08976
1.03185
0.976662
0.939641
0.89008
0.845483
0.805714
0.781051
0.747355
0.728288
0.712233
0.702598
0.692143
0.687873
0.683787
0.682788
0.684359
0.684042
0.68461
0.685054
0.686537
0.687862
0.690951
0.692271
0.693029
0.69303
0.693009
0.693569
0.694198
0.694367
0.69484
0.69517
0.695358
0.695548
0.691619
0.6895
0.688864
0.689747
0.690489
0.691156
0.690141
0.692293
0.691662
0.693582
0.690228
0.687153
0.682037
0.678545
0.676011
0.674902
0.672062
0.67278
0.669124
0.667618
0.663724
0.662432
0.657778
0.655536
0.652473
0.651529
0.647643
0.645402
0.647398
0.653012
0.661193
0.703982
0.772471
0.795683
0.79715
0.798556
0.799572
0.802021
0.804486
0.807283
0.810137
0.814026
0.817504
0.821538
0.825208
0.829521
0.833353
0.837715
0.842771
0.847823
0.851033
0.854138
0.858487
0.86313
0.866669
0.869778
0.873468
0.87713
0.88087
0.884373
0.887621
0.890875
0.89406
0.897045
0.899861
0.902658
0.905377
0.907824
0.910133
0.912498
0.914491
0.916441
0.918266
0.920025
0.921606
0.923148
0.924443
0.925815
0.926782
0.928037
0.928836
0.929952
0.930707
0.93163
0.932274
0.933002
0.933557
0.934263
0.934693
0.935094
0.935576
0.935845
0.936319
0.936402
0.936911
0.936941
0.937577
0.937477
0.938169
0.93783
0.938598
0.9381
0.939057
0.938323
0.939124
0.938646
0.939619
0.938793
0.940136
0.938464
0.940034
0.938805
0.941103
0.938284
0.941127
0.938829
0.942138
0.940082
0.943007
0.942736
0.944937
0.947504
0.950309
0.958577
0.982147
0.991376
1.00231
1.01579
1.0229
1.02976
1.02949
1.02958
1.02208
1.01878
1.01396
1.01101
1.00641
1.00589
1.00142
1.00219
1.00407
1.00054
1.00134
0.999763
1.00136
1.00071
1.00322
1.00246
1.00263
1.00339
1.00075
1.00133
0.999586
1.00164
1.00054
1.00413
1.00202
1.00147
1.00561
1.00588
1.01124
1.01361
1.01913
1.02289
1.02882
1.02975
1.02923
1.02664
1.02792
1.0283
1.02567
1.02196
1.01206
1.01197
1.00856
1.00934
1.00745
1.01087
1.00779
1.01253
1.00896
1.01446
1.01106
1.01662
1.01376
1.01889
1.01689
1.02133
1.01992
1.02357
1.02295
1.02581
1.02567
1.02825
1.02823
1.03042
1.03089
1.03254
1.0331
1.03496
1.03475
1.03651
1.03776
1.0391
1.03908
1.03996
1.04072
1.04201
1.04247
1.04307
1.04345
1.04456
1.04434
1.04486
1.0449
1.04535
1.04501
1.04522
1.04486
1.0447
1.04443
1.0442
1.04391
1.04338
1.04274
1.04195
1.04115
1.04053
1.03985
1.0389
1.03765
1.03627
1.03504
1.03385
1.03231
1.03065
1.0289
1.02744
1.02535
1.02296
1.02034
1.01819
1.0157
1.01283
1.01024
1.00768
1.00477
1.00153
0.998541
0.995154
0.991733
0.986652
0.98139
0.979401
0.977459
0.973369
0.96888
0.96429
0.959597
0.955006
0.950452
0.944935
0.939771
0.934581
0.929828
0.924154
0.919939
0.915514
0.912723
0.909018
0.908417
0.906776
0.908419
0.912272
0.912389
0.918953
0.920877
0.925699
0.930459
0.936109
0.941173
0.946549
0.951065
0.95582
0.959657
0.965012
0.969084
0.974075
0.977845
0.982965
0.986217
0.991636
0.994521
0.999198
1.00291
1.00659
1.01149
1.01574
1.02032
1.02497
1.02949
1.03429
1.03924
1.04486
1.04991
1.05523
1.06089
1.06641
1.07255
1.07775
1.08429
1.0907
1.09763
1.10466
1.11312
1.1209
1.12987
1.13801
1.14909
1.15807
1.16941
1.17941
1.19263
1.2035
1.21719
1.2285
1.23904
1.25045
1.25347
1.26274
1.24669
1.22709
1.18511
1.14147
1.07908
1.02693
0.972693
0.9368
0.886113
0.846945
0.80852
0.785655
0.749722
0.731337
0.712866
0.702671
0.694527
0.688705
0.686993
0.683598
0.684491
0.684345
0.684297
0.684587
0.686431
0.687113
0.689593
0.691514
0.692167
0.692411
0.692553
0.692101
0.693211
0.693279
0.693881
0.694195
0.694241
0.693989
0.69119
0.68894
0.688131
0.68883
0.689398
0.690243
0.690246
0.691145
0.691643
0.693821
0.69121
0.688613
0.684233
0.680842
0.679235
0.67882
0.677122
0.678148
0.675352
0.675007
0.671717
0.669802
0.666546
0.665061
0.661793
0.660133
0.657674
0.655567
0.656877
0.662929
0.670459
0.714027
0.786647
0.810657
0.811668
0.812379
0.81306
0.815139
0.817293
0.819699
0.821957
0.825418
0.828487
0.831985
0.835155
0.838935
0.842314
0.846107
0.850675
0.855139
0.858028
0.86067
0.864601
0.868638
0.871894
0.874673
0.877922
0.881274
0.884513
0.88765
0.890613
0.893421
0.896433
0.899279
0.901872
0.904535
0.906947
0.909194
0.911352
0.913404
0.915484
0.9173
0.91908
0.920662
0.922237
0.923481
0.924879
0.92601
0.927192
0.928177
0.929203
0.92998
0.930863
0.931521
0.932225
0.932798
0.933442
0.93404
0.934617
0.934903
0.935466
0.935694
0.936125
0.936184
0.936562
0.936615
0.937139
0.937072
0.937767
0.937491
0.938219
0.937794
0.938726
0.93799
0.938971
0.938525
0.939481
0.938543
0.940408
0.938388
0.940172
0.939014
0.941288
0.938518
0.941541
0.93919
0.942487
0.940379
0.943371
0.942631
0.945375
0.945991
0.950199
0.955519
0.974576
0.987592
0.998943
1.01492
1.02354
1.02981
1.02962
1.02911
1.02223
1.01929
1.01349
1.01221
1.00573
1.00624
1.00124
1.00244
1.0038
1.00103
1.00136
1.00031
1.00087
1.00089
1.00323
1.00241
1.00224
1.00296
1.00122
1.0009
1.00022
1.00149
1.00095
1.00373
1.0026
1.00141
1.0064
1.00621
1.012
1.01386
1.0194
1.02306
1.02873
1.02994
1.02916
1.02715
1.02832
1.0284
1.02766
1.02563
1.0162
1.01668
1.01157
1.01119
1.01043
1.01012
1.01071
1.01103
1.01229
1.01319
1.01441
1.01597
1.01674
1.01888
1.01921
1.0218
1.02203
1.02416
1.02486
1.02696
1.02718
1.02963
1.02943
1.03186
1.03229
1.03369
1.03472
1.03665
1.03602
1.03791
1.03947
1.04094
1.04081
1.04141
1.04189
1.04355
1.04379
1.04482
1.04467
1.04608
1.04569
1.04627
1.04629
1.04675
1.04649
1.04679
1.04648
1.04642
1.04619
1.04606
1.04591
1.04538
1.04468
1.04399
1.0433
1.04277
1.04207
1.04111
1.03988
1.03869
1.03759
1.03641
1.03487
1.03336
1.03177
1.03037
1.0283
1.02606
1.0237
1.02165
1.01923
1.01659
1.01408
1.0116
1.00884
1.0058
1.00298
0.999699
0.996437
0.991447
0.986366
0.984425
0.982316
0.978328
0.973894
0.969248
0.964505
0.959763
0.955112
0.949264
0.94393
0.938279
0.93316
0.927044
0.922715
0.917776
0.914771
0.910307
0.910046
0.906984
0.909931
0.912151
0.914083
0.918577
0.92234
0.925274
0.931419
0.935631
0.941944
0.945156
0.951743
0.954785
0.960786
0.964518
0.970231
0.973614
0.978919
0.982192
0.987071
0.990526
0.995199
0.99791
1.00387
1.00653
1.01236
1.01517
1.02126
1.02397
1.03005
1.03411
1.04051
1.0444
1.05078
1.05526
1.06163
1.06584
1.07319
1.07768
1.0856
1.09084
1.09921
1.10518
1.1142
1.12127
1.13189
1.13901
1.15049
1.15947
1.1713
1.18094
1.19322
1.20452
1.21646
1.22788
1.23744
1.24674
1.24871
1.25777
1.24388
1.22831
1.19561
1.15464
1.10388
1.05424
1.00033
0.962293
0.914034
0.874203
0.830737
0.806135
0.767778
0.748191
0.729412
0.717621
0.704621
0.699471
0.690685
0.69138
0.690314
0.690121
0.688202
0.689708
0.690497
0.692094
0.694024
0.695499
0.696052
0.696201
0.696258
0.696434
0.696183
0.696846
0.697174
0.697473
0.697334
0.69788
0.693726
0.691273
0.690392
0.691463
0.691963
0.692511
0.692469
0.693274
0.694099
0.695426
0.693637
0.690498
0.686914
0.683371
0.682112
0.680942
0.680324
0.680681
0.678603
0.678141
0.676452
0.674458
0.671352
0.670344
0.668666
0.666757
0.66433
0.662469
0.664523
0.670703
0.678397
0.722613
0.799458
0.824397
0.824817
0.825216
0.825844
0.82791
0.830258
0.832294
0.834281
0.837491
0.840314
0.843512
0.846309
0.849666
0.852673
0.855934
0.859952
0.863788
0.866327
0.868557
0.871864
0.875447
0.878159
0.880419
0.883437
0.886204
0.889135
0.891972
0.894591
0.897116
0.899689
0.902184
0.904429
0.906608
0.90905
0.911187
0.913044
0.915103
0.916852
0.91856
0.920088
0.921639
0.923036
0.924485
0.925535
0.926813
0.927554
0.928747
0.929368
0.930422
0.931067
0.931935
0.932411
0.933083
0.933492
0.934192
0.934539
0.934883
0.935347
0.935579
0.935974
0.936016
0.936457
0.936413
0.936937
0.936817
0.937499
0.937226
0.937959
0.937533
0.938453
0.937849
0.93887
0.938194
0.939258
0.938483
0.939787
0.938611
0.940254
0.938899
0.940805
0.939022
0.941424
0.939502
0.942148
0.940526
0.943024
0.942065
0.944629
0.944926
0.946473
0.950848
0.967151
0.981585
0.994454
1.00972
1.02115
1.0295
1.02949
1.02943
1.02224
1.01902
1.01373
1.01107
1.00646
1.00591
1.00145
1.00221
1.00412
1.00055
1.00139
0.99977
1.00131
1.00078
1.0032
1.00246
1.00253
1.00344
1.0007
1.0013
0.999514
1.00157
1.0005
1.00412
1.00203
1.0014
1.00568
1.00585
1.01139
1.01316
1.01932
1.0231
1.02857
1.02997
1.02905
1.02687
1.02805
1.02855
1.02757
1.02818
1.0208
1.01779
1.01525
1.01535
1.01322
1.01596
1.01335
1.01734
1.01432
1.01914
1.01618
1.02105
1.01844
1.02292
1.02105
1.02512
1.0238
1.02712
1.02672
1.02929
1.02919
1.03175
1.03162
1.03386
1.03428
1.03592
1.03677
1.03849
1.03818
1.03997
1.04111
1.04255
1.04258
1.04324
1.04355
1.04528
1.04558
1.04631
1.04645
1.04756
1.04743
1.04795
1.04791
1.0485
1.04828
1.04855
1.04843
1.04837
1.04828
1.04814
1.04807
1.04744
1.04676
1.04615
1.04565
1.04515
1.04448
1.04347
1.04242
1.04136
1.0403
1.03907
1.03766
1.0363
1.03487
1.03348
1.03149
1.02951
1.02718
1.02522
1.02288
1.02044
1.0181
1.01572
1.01311
1.01014
1.00733
1.00413
1.00087
0.996004
0.991119
0.989061
0.986889
0.982777
0.97818
0.973249
0.968187
0.962943
0.957806
0.951545
0.945981
0.940083
0.934629
0.928379
0.923734
0.91883
0.915519
0.911425
0.910616
0.908274
0.91112
0.91325
0.914699
0.919435
0.922863
0.926022
0.932014
0.936276
0.942849
0.946731
0.952755
0.955872
0.961282
0.96494
0.970411
0.97401
0.979296
0.98307
0.987684
0.991615
0.995907
0.999076
1.00431
1.00678
1.01305
1.01605
1.02192
1.02562
1.03139
1.03497
1.04101
1.0455
1.05146
1.05559
1.06269
1.06701
1.07457
1.07888
1.08654
1.09165
1.09977
1.10585
1.11523
1.122
1.13173
1.13949
1.15042
1.15933
1.17083
1.18041
1.19188
1.20328
1.21455
1.22532
1.23465
1.24335
1.2448
1.25258
1.23786
1.22181
1.18396
1.14763
1.09528
1.04721
0.99539
0.958798
0.909606
0.874259
0.832573
0.80817
0.769803
0.751627
0.728099
0.71834
0.706
0.701646
0.692721
0.691974
0.691058
0.691283
0.689115
0.688564
0.689205
0.691219
0.692698
0.694326
0.694737
0.695429
0.695336
0.695925
0.694455
0.695306
0.695758
0.696307
0.69608
0.695735
0.693686
0.690335
0.689379
0.690016
0.690505
0.691362
0.691451
0.692252
0.693182
0.693805
0.69319
0.689124
0.686557
0.681904
0.681718
0.679584
0.67967
0.679762
0.679084
0.676688
0.676033
0.674272
0.672903
0.669338
0.669523
0.66806
0.667686
0.663825
0.667284
0.674021
0.682905
0.728908
0.809874
0.835275
0.836155
0.836337
0.837469
0.839555
0.842573
0.844869
0.846914
0.849961
0.852964
0.855903
0.858572
0.861611
0.864231
0.867077
0.870678
0.87375
0.876209
0.877775
0.880682
0.88351
0.885901
0.887689
0.890193
0.892616
0.894844
0.89716
0.899444
0.901328
0.903603
0.90592
0.907896
0.909858
0.911772
0.913661
0.915325
0.916843
0.91872
0.920267
0.921739
0.923001
0.924364
0.925349
0.926594
0.92747
0.928597
0.92936
0.930331
0.930885
0.931717
0.932189
0.932786
0.933213
0.933796
0.934242
0.934824
0.935065
0.935568
0.935739
0.936155
0.936132
0.936504
0.936418
0.936918
0.936728
0.9374
0.937079
0.937861
0.937384
0.938328
0.937724
0.938796
0.93794
0.939302
0.938497
0.939757
0.938493
0.940697
0.93873
0.94087
0.939047
0.941895
0.939363
0.942432
0.94027
0.943363
0.941616
0.944747
0.943579
0.947042
0.949803
0.960859
0.976413
0.989924
1.00829
1.02066
1.02948
1.02964
1.02887
1.02243
1.01945
1.01307
1.01211
1.00566
1.00611
1.00131
1.00243
1.00376
1.00103
1.00132
1.00025
1.00081
1.00089
1.00318
1.00241
1.0024
1.00277
1.00118
1.00091
1.0002
1.00144
1.00091
1.00369
1.00259
1.00133
1.00639
1.00617
1.0122
1.01389
1.01954
1.0232
1.02835
1.03014
1.02895
1.02759
1.02839
1.02821
1.02866
1.02953
1.02528
1.02362
1.01786
1.01934
1.01579
1.01816
1.01604
1.01854
1.01733
1.02005
1.01922
1.02209
1.02151
1.02419
1.02391
1.02659
1.02651
1.02872
1.02896
1.03132
1.03139
1.03375
1.03366
1.03593
1.03637
1.03802
1.03867
1.0408
1.04035
1.0422
1.04293
1.04445
1.04429
1.04525
1.04553
1.04718
1.04754
1.04827
1.04802
1.04939
1.04925
1.0498
1.0498
1.05031
1.05011
1.0506
1.05034
1.05054
1.05038
1.05045
1.05023
1.04957
1.049
1.04855
1.04811
1.04764
1.04688
1.04595
1.045
1.04408
1.04307
1.04186
1.04052
1.03933
1.03798
1.03664
1.0347
1.03285
1.03077
1.02889
1.02664
1.02439
1.02202
1.01973
1.01721
1.01433
1.01165
1.00856
1.00532
1.00033
0.995201
0.992989
0.99008
0.985259
0.980527
0.975201
0.969798
0.964307
0.958835
0.952419
0.9466
0.940679
0.935046
0.928942
0.924037
0.919358
0.915864
0.91217
0.910991
0.908689
0.91092
0.91351
0.915218
0.919842
0.923412
0.926821
0.932389
0.936794
0.942709
0.946212
0.952669
0.955708
0.961568