/*--------------------------------*- C++ -*----------------------------------*\
| =========                 |                                                 |
| \\      /  F ield         | OpenFOAM: The Open Source CFD Toolbox           |
|  \\    /   O peration     | Version:  v2006                                 |
|   \\  /    A nd           | Website:  www.openfoam.com                      |
|    \\/     M anipulation  |                                                 |
\*---------------------------------------------------------------------------*/
FoamFile
{
    version     2.0;
    format      ascii;
    class       volScalarField;
    location    "40";
    object      T;
}
// * * * * * * * * * * * * * * * * * * * * * * * * * * * * * * * * * * * * * //

dimensions      [0 0 0 1 0 0 0];


internalField   nonuniform List<scalar> 
93840
(
1.00095
1.00122
1.00032
1.0005
0.999817
1.00056
1.0002
1.00144
1.00073
1.00079
1.00236
1.00245
1.00469
1.00516
1.00738
1.00894
1.01184
1.01193
1.01213
1.01156
1.01301
1.01888
1.03034
1.03662
1.036
1.04094
1.03238
1.02711
1.03129
1.02971
1.03464
1.04059
1.04139
1.03578
1.04423
1.03924
1.04538
1.0417
1.04646
1.04391
1.04737
1.0454
1.04819
1.04664
1.04898
1.04786
1.04989
1.04893
1.05055
1.04995
1.05138
1.05074
1.05219
1.05222
1.05301
1.05198
1.05287
1.0531
1.05415
1.0541
1.0545
1.05461
1.0556
1.05556
1.05591
1.0561
1.0566
1.05652
1.05693
1.05691
1.05705
1.05707
1.05726
1.05719
1.05725
1.05715
1.05721
1.05716
1.05718
1.05712
1.0572
1.0572
1.05735
1.05711
1.05694
1.05676
1.05687
1.05669
1.05647
1.05629
1.05614
1.05571
1.05522
1.05485
1.05449
1.05394
1.05343
1.05298
1.05243
1.0517
1.05106
1.05029
1.04969
1.04787
1.04588
1.04553
1.0457
1.04442
1.04292
1.04125
1.03967
1.03789
1.03629
1.03391
1.03168
1.02924
1.02705
1.02412
1.02173
1.0191
1.01708
1.01443
1.01294
1.01089
1.01014
1.0108
1.00946
1.01103
1.01063
1.01095
1.01197
1.01285
1.01392
1.01457
1.01526
1.016
1.0166
1.01759
1.01808
1.01896
1.01928
1.02011
1.02026
1.02134
1.02141
1.02207
1.02246
1.0227
1.02351
1.02411
1.02482
1.0254
1.0259
1.02684
1.0277
1.0289
1.02963
1.03075
1.0317
1.03315
1.0342
1.03521
1.03639
1.03785
1.03925
1.04129
1.04334
1.0458
1.04785
1.05018
1.05312
1.0564
1.05992
1.06399
1.06834
1.07318
1.07789
1.08419
1.09009
1.0959
1.09983
1.1021
1.09956
1.07958
1.05852
1.01911
0.985023
0.957963
0.950085
0.95024
0.924189
0.907011
0.898781
0.896914
0.88798
0.888645
0.88892
0.892586
0.892599
0.897055
0.903006
0.906353
0.910249
0.913736
0.918013
0.921397
0.925683
0.929058
0.93325
0.935904
0.938628
0.940793
0.944056
0.946029
0.949214
0.951304
0.95405
0.95589
0.95867
0.959531
0.960183
0.960984
0.963795
0.965604
0.968871
0.970492
0.972977
0.97434
0.976922
0.978348
0.979196
0.977848
0.9786
0.977358
0.979938
0.979902
0.982329
0.983014
0.984546
0.984115
0.985674
0.984858
0.985891
0.985183
0.986828
0.986758
0.98692
0.98734
0.990932
0.996015
1.00439
1.03588
1.06908
1.07489
1.07145
1.06816
1.0655
1.06377
1.06286
1.06229
1.06204
1.06217
1.0625
1.06304
1.0636
1.06433
1.06492
1.06582
1.06742
1.06877
1.06882
1.06905
1.07013
1.0714
1.07185
1.07212
1.0727
1.0735
1.07419
1.07476
1.0753
1.07588
1.07642
1.0769
1.07746
1.07798
1.0784
1.07881
1.07939
1.07978
1.08015
1.0806
1.08103
1.08133
1.08168
1.08193
1.0822
1.08235
1.08249
1.08249
1.08266
1.08288
1.08313
1.08338
1.08362
1.08379
1.08413
1.08429
1.08463
1.0848
1.08502
1.08485
1.08352
1.07936
1.07726
1.07695
1.07777
1.07847
1.07944
1.08041
1.08154
1.08242
1.08341
1.08405
1.0849
1.08556
1.08659
1.08654
1.08751
1.0877
1.08844
1.08902
1.08928
1.09013
1.0885
1.09072
1.08302
1.07927
1.06778
1.05778
1.04857
1.03021
1.03228
1.03253
1.03665
1.03257
1.01997
1.01357
1.01089
1.01218
1.01195
1.01183
1.0089
1.00747
1.00537
1.00386
1.0022
1.00268
1.00065
1.001
1.00135
1.00021
1.00065
1.00008
1.00048
1.00032
1.00122
1.00097
1.00101
1.00128
1.00033
1.00049
1
1.00071
1.00017
1.00133
1.00106
1.00069
1.00257
1.00193
1.00417
1.00535
1.00755
1.00898
1.01174
1.01201
1.01201
1.01076
1.01223
1.01574
1.02654
1.03405
1.03239
1.03835
1.03908
1.03891
1.03824
1.03888
1.037
1.03818
1.03727
1.04049
1.03994
1.04249
1.04225
1.04395
1.04443
1.04535
1.04613
1.04651
1.04757
1.04762
1.04878
1.04879
1.04994
1.04988
1.05095
1.05095
1.05205
1.05183
1.05302
1.05324
1.05391
1.05331
1.05417
1.05456
1.0555
1.05551
1.05594
1.0561
1.0569
1.05685
1.05717
1.05722
1.05764
1.05754
1.05788
1.05781
1.05795
1.05797
1.05817
1.05813
1.0582
1.05812
1.05818
1.05811
1.05806
1.05795
1.05795
1.05782
1.0577
1.05728
1.05711
1.0569
1.0567
1.05626
1.05605
1.05575
1.05533
1.05464
1.05407
1.05352
1.05284
1.05207
1.05138
1.05062
1.04974
1.04875
1.04774
1.04656
1.04556
1.04319
1.04083
1.04017
1.03989
1.03799
1.03596
1.03363
1.03145
1.02898
1.0267
1.02352
1.02062
1.0174
1.01452
1.01082
1.00791
1.00465
1.00221
0.999095
0.997514
0.995234
0.994647
0.995345
0.994121
0.996022
0.995641
0.996382
0.997645
0.998798
1.00012
1.00094
1.00197
1.00293
1.00383
1.00503
1.00579
1.00693
1.00747
1.00852
1.00889
1.01021
1.01048
1.01134
1.012
1.01257
1.01367
1.01459
1.01565
1.01656
1.0175
1.01895
1.02026
1.0219
1.02311
1.02483
1.02634
1.02839
1.03018
1.03203
1.03409
1.03648
1.03886
1.04191
1.04497
1.04845
1.05159
1.05514
1.05912
1.06348
1.06783
1.07243
1.07669
1.08235
1.08675
1.09222
1.09714
1.10258
1.10535
1.10645
1.10091
1.08963
1.07498
1.04331
1.01153
0.98018
0.959649
0.949169
0.924918
0.903883
0.887013
0.879611
0.866135
0.86131
0.856998
0.856653
0.854261
0.855601
0.859565
0.861913
0.865161
0.867737
0.871983
0.875205
0.879877
0.883659
0.888562
0.891753
0.895483
0.897887
0.901939
0.904351
0.908165
0.910464
0.913929
0.916021
0.919542
0.920696
0.921984
0.922787
0.92602
0.92781
0.931692
0.933524
0.936829
0.938297
0.94153
0.943164
0.945012
0.943434
0.944848
0.943228
0.94634
0.946084
0.94916
0.949641
0.951907
0.951623
0.953776
0.952337
0.954432
0.953416
0.955511
0.954782
0.956408
0.955901
0.960469
0.965666
0.974623
1.01173
1.05337
1.06437
1.06301
1.0608
1.05889
1.05767
1.05729
1.05717
1.05733
1.05791
1.05871
1.05975
1.06077
1.062
1.06307
1.06442
1.06658
1.06851
1.06901
1.0696
1.07105
1.0728
1.07359
1.07416
1.07501
1.0761
1.07702
1.07788
1.07863
1.07939
1.08013
1.08079
1.08146
1.08211
1.08267
1.08318
1.08378
1.08427
1.08471
1.08516
1.08563
1.08599
1.08635
1.08663
1.08693
1.08712
1.08731
1.08735
1.08747
1.08757
1.08772
1.08786
1.08803
1.08808
1.08832
1.0883
1.08855
1.0886
1.0888
1.08873
1.08858
1.08703
1.08581
1.08515
1.08539
1.08574
1.08636
1.0866
1.0872
1.08756
1.08809
1.08827
1.08895
1.08933
1.0901
1.09003
1.09026
1.09049
1.09103
1.09049
1.09122
1.09175
1.09203
1.09146
1.09074
1.08952
1.08549
1.07859
1.07321
1.0565
1.04452
1.03606
1.03676
1.03573
1.02428
1.01437
1.01174
1.01228
1.01184
1.01191
1.00892
1.00743
1.00537
1.00496
1.0026
1.0024
1.00086
1.0007
1.00145
1.00019
1.00055
0.999834
1.0005
1.00033
1.00123
1.00097
1.00099
1.00127
1.00034
1.00051
0.999839
1.00056
1.00016
1.00145
1.00081
1.0009
1.00253
1.00261
1.00488
1.00526
1.00738
1.00891
1.01167
1.01198
1.01203
1.01142
1.01161
1.01468
1.02173
1.03302
1.03257
1.03366
1.03579
1.03491
1.03742
1.03721
1.03843
1.0396
1.03946
1.03942
1.04143
1.04095
1.04302
1.0427
1.04458
1.04439
1.04601
1.04575
1.04726
1.04709
1.04836
1.0484
1.04949
1.04958
1.05054
1.05071
1.05159
1.0517
1.05265
1.05303
1.05372
1.05338
1.05398
1.05439
1.05516
1.05535
1.05566
1.05578
1.05646
1.05645
1.05661
1.05664
1.05706
1.05691
1.05721
1.05717
1.05726
1.05727
1.05744
1.0574
1.05742
1.05732
1.05728
1.05712
1.05697
1.05679
1.0567
1.05646
1.05621
1.0558
1.05553
1.05515
1.05478
1.05432
1.05403
1.05356
1.05296
1.05216
1.05148
1.05071
1.04983
1.0489
1.04798
1.04697
1.04583
1.0446
1.04326
1.04179
1.04045
1.03771
1.03505
1.034
1.03331
1.03098
1.02851
1.0257
1.02306
1.02009
1.01732
1.01365
1.01033
1.00666
1.00342
0.99938
0.996282
0.992791
0.990296
0.987109
0.985662
0.983431
0.983157
0.983895
0.982876
0.984935
0.984773
0.985779
0.987203
0.988618
0.990179
0.991303
0.992572
0.993746
0.99487
0.99627
0.997354
0.998695
0.999532
1.00086
1.0016
1.00322
1.00378
1.005
1.0059
1.00681
1.00829
1.0095
1.01086
1.01217
1.01345
1.01516
1.0168
1.01878
1.02041
1.02245
1.0243
1.02654
1.02846
1.03046
1.03254
1.03504
1.03743
1.04031
1.04309
1.04636
1.04927
1.05275
1.05631
1.06024
1.06405
1.06831
1.07269
1.07795
1.08289
1.08872
1.09276
1.09873
1.10105
1.10303
1.09839
1.0879
1.06654
1.03919
1.00884
0.981776
0.963087
0.953127
0.928315
0.909224
0.893064
0.886869
0.870542
0.864967
0.859636
0.857405
0.853488
0.852986
0.854327
0.85345
0.855521
0.855889
0.857606
0.857866
0.860686
0.862494
0.865872
0.867002
0.869728
0.870652
0.873902
0.875322
0.878713
0.880258
0.883587
0.88513
0.888562
0.889652
0.891237
0.891331
0.894772
0.896148
0.900352
0.90187
0.905584
0.906939
0.910641
0.912047
0.914412
0.912975
0.914972
0.913132
0.916712
0.916236
0.919688
0.920102
0.92299
0.922101
0.925198
0.923835
0.926353
0.924469
0.928276
0.926605
0.929687
0.926893
0.934882
0.935619
0.951882
0.992371
1.03051
1.04658
1.04741
1.04678
1.04624
1.0461
1.04674
1.04747
1.04835
1.04957
1.05105
1.05272
1.05435
1.05612
1.05775
1.05962
1.06236
1.06483
1.06577
1.06678
1.06866
1.07086
1.07197
1.07286
1.074
1.07541
1.07655
1.07769
1.07865
1.07961
1.08053
1.08139
1.08218
1.08296
1.08366
1.08428
1.08492
1.08551
1.08604
1.08654
1.08705
1.08747
1.08788
1.0882
1.08855
1.08879
1.08903
1.08916
1.08931
1.08939
1.08953
1.08962
1.08978
1.08979
1.09
1.08996
1.09015
1.09013
1.09033
1.09024
1.09034
1.08963
1.08902
1.08845
1.08843
1.08842
1.08875
1.0888
1.08921
1.08931
1.0897
1.08968
1.09017
1.09039
1.09092
1.09103
1.09119
1.0913
1.09179
1.09138
1.09161
1.09277
1.09257
1.09238
1.09229
1.09177
1.09005
1.08699
1.08336
1.07389
1.06183
1.04548
1.03874
1.03778
1.02701
1.01609
1.01163
1.01226
1.0119
1.01173
1.00893
1.00748
1.00557
1.00386
1.00218
1.00253
1.00063
1.00102
1.00136
1.00024
1.00074
1.00002
1.00045
1.00029
1.00125
1.00101
1.00093
1.00125
1.00039
1.0005
0.999954
1.00062
1.00017
1.00132
1.00107
1.00062
1.00244
1.00192
1.00421
1.0053
1.00751
1.00916
1.01162
1.01195
1.01197
1.01082
1.01165
1.01283
1.02007
1.02863
1.03199
1.03447
1.03552
1.03535
1.03662
1.03665
1.03683
1.03776
1.03776
1.03951
1.03947
1.0411
1.04142
1.04247
1.04326
1.04395
1.04474
1.04527
1.04616
1.04652
1.04739
1.04775
1.04862
1.04888
1.0498
1.05
1.05089
1.051
1.05179
1.05218
1.05284
1.05273
1.0533
1.05366
1.05434
1.05444
1.05476
1.05498
1.05542
1.05551
1.05574
1.05572
1.05604
1.05599
1.05618
1.05615
1.05622
1.05622
1.05634
1.05626
1.05622
1.05605
1.05591
1.05569
1.05548
1.05527
1.05508
1.05477
1.05447
1.05404
1.05366
1.05317
1.05274
1.05228
1.05187
1.05124
1.05056
1.04969
1.04888
1.04792
1.04692
1.04587
1.04473
1.04353
1.0422
1.04076
1.03916
1.03749
1.03586
1.03288
1.03
1.02865
1.0276
1.02495
1.02218
1.01905
1.01608
1.0128
1.00971
1.00577
1.00225
0.998394
0.995001
0.990881
0.987794
0.984306
0.981892
0.978828
0.977588
0.975446
0.975358
0.976173
0.975536
0.977613
0.977742
0.978913
0.980495
0.982087
0.983692
0.984985
0.986503
0.987905
0.98928
0.990934
0.992286
0.993905
0.995003
0.996546
0.997549
0.999375
1.00028
1.0017
1.00311
1.00439
1.00611
1.0077
1.00948
1.01114
1.01284
1.01499
1.01683
1.01904
1.02088
1.02322
1.02506
1.02739
1.02964
1.03194
1.03416
1.03675
1.03925
1.04215
1.04507
1.04842
1.05145
1.05508
1.05891
1.06315
1.067
1.07151
1.07558
1.08094
1.08568
1.09159
1.09481
1.09921
1.10192
1.10164
1.09726
1.08958
1.07258
1.05035
1.02572
0.996645
0.976448
0.961994
0.939849
0.917761
0.901349
0.890382
0.87697
0.867866
0.862576
0.857631
0.854762
0.851743
0.853202
0.851667
0.853373
0.853266
0.85436
0.854554
0.856454
0.856943
0.859745
0.859668
0.861142
0.860245
0.86197
0.861779
0.86401
0.863754
0.866092
0.866168
0.869197
0.869052
0.870414
0.869913
0.873084
0.873822
0.87804
0.87894
0.882898
0.883956
0.887849
0.888933
0.891884
0.890091
0.892415
0.890448
0.894343
0.893632
0.897398
0.897476
0.900867
0.899982
0.903372
0.90154
0.905097
0.90296
0.906892
0.904823
0.909243
0.905749
0.914391
0.913841
0.931987
0.973458
1.01142
1.02885
1.03103
1.03173
1.03246
1.03342
1.03506
1.03672
1.03839
1.04025
1.04243
1.04472
1.04697
1.04928
1.05148
1.05386
1.05712
1.06011
1.06147
1.06291
1.06519
1.06783
1.06927
1.07047
1.0719
1.07362
1.07501
1.0764
1.0776
1.07875
1.07984
1.08091
1.08185
1.08274
1.08358
1.08433
1.08503
1.0857
1.08632
1.08689
1.08744
1.08793
1.0884
1.08877
1.08917
1.08947
1.08975
1.08996
1.09016
1.09027
1.09042
1.0905
1.09066
1.09068
1.09088
1.09084
1.09102
1.09097
1.09115
1.09105
1.09121
1.09082
1.09053
1.09005
1.09001
1.08983
1.09006
1.08999
1.09035
1.09027
1.09066
1.0906
1.0909
1.09106
1.09148
1.09127
1.09159
1.09201
1.09198
1.09198
1.09226
1.09269
1.09283
1.09275
1.09295
1.0928
1.09193
1.09053
1.08774
1.0826
1.07436
1.05698
1.04338
1.04009
1.02994
1.01746
1.01247
1.01239
1.01178
1.01185
1.00889
1.0075
1.00524
1.00498
1.00233
1.0023
1.00079
1.00065
1.00151
1.00017
1.00049
0.999823
1.0005
1.00031
1.00122
1.00096
1.00103
1.00125
1.00034
1.00054
0.999813
1.00045
1.00017
1.00141
1.00085
1.00084
1.0024
1.00263
1.00453
1.00553
1.00734
1.00898
1.01161
1.01194
1.01199
1.01107
1.01148
1.01257
1.01609
1.0268
1.02971
1.03075
1.03324
1.03375
1.03469
1.03645
1.03599
1.03803
1.03743
1.03888
1.03916
1.04007
1.04079
1.04141
1.04243
1.0428
1.04389
1.04412
1.04515
1.04546
1.04632
1.04671
1.04753
1.04782
1.04873
1.04894
1.04973
1.05001
1.05065
1.05104
1.05177
1.0518
1.05215
1.0524
1.05304
1.05323
1.05357
1.05368
1.05418
1.05434
1.05446
1.05446
1.05479
1.05471
1.05489
1.05487
1.05493
1.05487
1.05492
1.05482
1.05468
1.05443
1.0542
1.05394
1.0537
1.05345
1.05316
1.05279
1.05245
1.05201
1.05151
1.05093
1.05046
1.04996
1.04944
1.04867
1.04793
1.04696
1.04602
1.04489
1.04379
1.04258
1.04124
1.03988
1.03837
1.03673
1.03491
1.03305
1.03116
1.02797
1.02489
1.02327
1.02192
1.01903
1.01603
1.01268
1.00948
1.00601
1.00272
0.998681
0.995099
0.991216
0.987833
0.983801
0.980845
0.97749
0.975255
0.972382
0.971345
0.969462
0.96967
0.970582
0.970081
0.972266
0.972598
0.973909
0.975662
0.977435
0.979318
0.980894
0.982538
0.984111
0.985594
0.987427
0.989011
0.990771
0.992154
0.993957
0.995239
0.997205
0.998295
1.00008
1.00155
1.00294
1.00478
1.00632
1.00811
1.00986
1.01157
1.0135
1.01535
1.01748
1.01932
1.02157
1.02373
1.02596
1.02797
1.03019
1.03239
1.03496
1.03755
1.0405
1.0434
1.04663
1.04949
1.05298
1.05668
1.06077
1.06464
1.06918
1.07334
1.07877
1.08308
1.08952
1.09311
1.09769
1.09948
1.10013
1.09537
1.08599
1.06963
1.04926
1.02321
0.998399
0.978983
0.965014
0.9425
0.923408
0.908242
0.897933
0.882688
0.874728
0.867652
0.8637
0.860856
0.857603
0.858584
0.857213
0.859106
0.8581
0.859329
0.85859
0.860446
0.860445
0.862898
0.86263
0.863717
0.862965
0.863973
0.863154
0.864416
0.86392
0.865303
0.863891
0.865635
0.864061
0.864542
0.861893
0.86408
0.86317
0.866302
0.865628
0.868751
0.868712
0.872057
0.872295
0.874846
0.872697
0.874947
0.872467
0.876286
0.875349
0.879104
0.878825
0.882142
0.881386
0.884984
0.88299
0.886343
0.884659
0.888551
0.886721
0.890358
0.888456
0.894401
0.898116
0.913267
0.954806
0.994703
1.00952
1.01303
1.01488
1.01679
1.01878
1.02141
1.02403
1.02657
1.02911
1.03203
1.03498
1.03794
1.04084
1.04366
1.04662
1.05045
1.05401
1.05581
1.05776
1.06048
1.0636
1.06545
1.067
1.06876
1.07086
1.07255
1.07423
1.07572
1.07712
1.07841
1.07971
1.08085
1.08189
1.08287
1.08378
1.08459
1.08536
1.08609
1.08674
1.08737
1.08792
1.08846
1.08889
1.08935
1.08971
1.09004
1.09032
1.09058
1.09074
1.09094
1.09103
1.09121
1.09124
1.09143
1.09144
1.0916
1.09153
1.09171
1.09162
1.09178
1.09154
1.09143
1.09109
1.09104
1.09085
1.09096
1.09087
1.0911
1.09103
1.09132
1.09133
1.09146
1.09152
1.09193
1.09173
1.09192
1.09233
1.09228
1.09222
1.09273
1.09278
1.09287
1.09323
1.09338
1.09324
1.09294
1.0924
1.09012
1.08778
1.08288
1.06767
1.05004
1.04286
1.03322
1.01968
1.01235
1.01252
1.01196
1.01161
1.00895
1.00755
1.00531
1.00375
1.00242
1.00259
1.00064
1.00108
1.00133
1.00019
1.00078
1.00004
1.00044
1.00031
1.00126
1.001
1.00092
1.00127
1.0004
1.00049
0.999973
1.00072
1.00024
1.00127
1.00104
1.00058
1.00242
1.00199
1.00443
1.00488
1.00756
1.00926
1.01157
1.01195
1.01193
1.01102
1.01131
1.0119
1.01435
1.022
1.02905
1.03053
1.0318
1.03334
1.03338
1.03497
1.03438
1.03624
1.03579
1.03771
1.03743
1.03908
1.03911
1.0404
1.0407
1.04181
1.04219
1.04294
1.04371
1.04414
1.04497
1.04539
1.04614
1.04652
1.04737
1.04755
1.04839
1.04868
1.04912
1.04948
1.05034
1.05045
1.05086
1.05094
1.05148
1.05175
1.05213
1.05241
1.05269
1.05293
1.05304
1.05301
1.05327
1.05325
1.05339
1.05335
1.05339
1.05329
1.05326
1.05305
1.05287
1.05256
1.05225
1.052
1.05171
1.05139
1.05102
1.05061
1.05024
1.04974
1.04912
1.0485
1.04798
1.04742
1.04676
1.04588
1.04508
1.044
1.04293
1.04164
1.04043
1.03907
1.03756
1.03603
1.03435
1.03252
1.03051
1.02848
1.02636
1.023
1.01977
1.01792
1.01632
1.01326
1.01011
1.00665
1.00333
0.999792
0.996435
0.99245
0.988928
0.985165
0.981889
0.97809
0.975323
0.972208
0.970157
0.967593
0.966767
0.965047
0.965402
0.966523
0.966412
0.968663
0.969337
0.970821
0.972754
0.974823
0.976823
0.978597
0.980633
0.982537
0.984475
0.986656
0.988502
0.990582
0.992155
0.994076
0.995401
0.997448
0.998705
1.00035
1.00209
1.0037
1.00552
1.00717
1.00882
1.01054
1.01238
1.0145
1.01634
1.01876
1.02057
1.02269
1.02457
1.02699
1.0291
1.03132
1.03367
1.03637
1.03885
1.04183
1.04463
1.04803
1.0512
1.05469
1.05809
1.06275
1.06631
1.07094
1.07438
1.08032
1.08352
1.08975
1.0926
1.09705
1.09861
1.09855
1.09366
1.08757
1.0733
1.05561
1.03307
1.01027
0.987332
0.973427
0.950067
0.933342
0.913552
0.903404
0.886636
0.878793
0.869222
0.866251
0.859256
0.858993
0.854738
0.856965
0.855358
0.857254
0.856631
0.857238
0.857698
0.859547
0.859037
0.861079
0.860942
0.861593
0.862252
0.861717
0.861784
0.862163
0.863101
0.862719
0.863322
0.862641
0.861884
0.859874
0.860374
0.860168
0.861482
0.861322
0.862962
0.861573
0.863986
0.863442
0.865454
0.862238
0.863535
0.860528
0.86363
0.862193
0.865335
0.865018
0.868035
0.866718
0.869925
0.868622
0.8712
0.869519
0.872841
0.872055
0.874465
0.873381
0.878233
0.882415
0.897516
0.938065
0.977848
0.991863
0.995345
0.997699
1.00032
1.00307
1.00641
1.00986
1.01326
1.01642
1.02005
1.02366
1.02731
1.03085
1.0343
1.0379
1.04232
1.0465
1.0488
1.05128
1.0545
1.05816
1.06045
1.06244
1.06457
1.06711
1.06917
1.07118
1.07301
1.07473
1.07625
1.07782
1.07922
1.08045
1.0816
1.08271
1.08367
1.08454
1.0854
1.08618
1.0869
1.08754
1.08816
1.08867
1.08919
1.08962
1.09
1.09035
1.09068
1.09091
1.09117
1.09129
1.0915
1.09155
1.09175
1.0918
1.09197
1.09191
1.09211
1.092
1.09219
1.092
1.09201
1.09174
1.09175
1.09154
1.09165
1.09149
1.09169
1.0916
1.09188
1.09176
1.09192
1.092
1.0922
1.09223
1.09245
1.09233
1.09243
1.09277
1.09296
1.09289
1.09309
1.09348
1.09367
1.09372
1.09364
1.09337
1.09185
1.09093
1.08812
1.07598
1.05816
1.04664
1.03673
1.02157
1.01358
1.01276
1.0118
1.01183
1.00888
1.00745
1.00518
1.00483
1.00218
1.00232
1.00084
1.00067
1.00153
1.00018
1.00053
0.999783
1.00049
1.00028
1.00124
1.00097
1.00104
1.00127
1.00032
1.00053
0.999804
1.00037
1.00023
1.00141
1.00083
1.00086
1.0024
1.00267
1.00459
1.0053
1.00742
1.00925
1.0115
1.01192
1.01192
1.01109
1.01132
1.01158
1.01255
1.01879
1.02447
1.02853
1.02814
1.03201
1.0307
1.0342
1.03272
1.03549
1.03454
1.03651
1.03628
1.03759
1.03791
1.03877
1.03947
1.04006
1.04086
1.0413
1.04219
1.04253
1.0434
1.04378
1.04457
1.04491
1.04575
1.04597
1.04675
1.0471
1.04748
1.04781
1.0487
1.04888
1.04917
1.04923
1.04984
1.05016
1.05064
1.05065
1.05106
1.05124
1.05139
1.05134
1.0516
1.05156
1.05169
1.05158
1.05166
1.05144
1.05136
1.0511
1.05085
1.05047
1.05016
1.04989
1.04953
1.04912
1.04868
1.04826
1.04785
1.04728
1.04656
1.04589
1.04531
1.04466
1.04389
1.04291
1.04202
1.04082
1.03963
1.03819
1.03689
1.03535
1.03369
1.03202
1.03018
1.02819
1.02601
1.02384
1.02152
1.01803
1.01471
1.0127
1.01092
1.00778
1.00458
1.00111
0.997791
0.994325
0.991021
0.987228
0.983867
0.980316
0.977229
0.97376
0.971205
0.968406
0.966582
0.964322
0.963644
0.962417
0.962941
0.964355
0.964242
0.966871
0.967521
0.969286
0.971327
0.973752
0.976105
0.978272
0.980171
0.982143
0.983914
0.986113
0.987797
0.989834
0.99142
0.993585
0.994935
0.997003
0.99802
0.999857
1.00138
1.00295
1.00483
1.00656
1.00825
1.01018
1.01164
1.01369
1.01547
1.01778
1.01947
1.02179
1.02373
1.02623
1.02817
1.03075
1.03273
1.03544
1.0378
1.04124
1.04362
1.04726
1.04984
1.05396
1.05672
1.06136
1.06481
1.07012
1.07301
1.07903
1.08235
1.08823
1.0921
1.09557
1.09722
1.09697
1.09195
1.0841
1.0702
1.05336
1.03235
1.01095
0.990163
0.976033
0.952868
0.937681
0.920571
0.909764
0.89326
0.88536
0.873396
0.872703
0.865201
0.864208
0.86191
0.862213
0.860795
0.86154
0.86228
0.861681
0.861326
0.863533
0.863709
0.864209
0.864828
0.86465
0.865307
0.865669
0.864935
0.865184
0.865694
0.86555
0.866005
0.865035
0.86434
0.862285
0.862713
0.862385
0.86342
0.863133
0.863841
0.863628
0.864931
0.863714
0.865033
0.861382
0.86181
0.857974
0.85994
0.857743
0.859622
0.858398
0.860095
0.858712
0.860522
0.858616
0.860589
0.859116
0.861189
0.860033
0.862523
0.861206
0.865579
0.869178
0.884127
0.923807
0.962092
0.975515
0.978762
0.981186
0.984152
0.98728
0.990936
0.994972
0.999016
1.00269
1.00684
1.01102
1.01527
1.01944
1.02348
1.02774
1.03273
1.03758
1.04037
1.04345
1.0472
1.05144
1.05425
1.05671
1.05926
1.06229
1.06478
1.06719
1.06939
1.07151
1.07334
1.07521
1.07692
1.0784
1.07973
1.08108
1.08225
1.08327
1.08426
1.0852
1.08605
1.08678
1.0875
1.08811
1.08871
1.08922
1.08968
1.09009
1.09048
1.09077
1.09112
1.0913
1.09156
1.09165
1.09187
1.09196
1.09216
1.09211
1.09232
1.09226
1.09242
1.09229
1.09235
1.09218
1.09221
1.09205
1.09214
1.09201
1.09211
1.09206
1.09223
1.09216
1.0923
1.09244
1.0925
1.09252
1.09283
1.09261
1.09266
1.09308
1.0932
1.09306
1.09336
1.0936
1.09388
1.094
1.09411
1.09389
1.09311
1.09289
1.09132
1.08152
1.06672
1.05159
1.04044
1.02436
1.01375
1.01303
1.01203
1.01163
1.00898
1.00761
1.00537
1.00397
1.00238
1.00254
1.00068
1.00111
1.00136
1.00019
1.00087
0.999995
1.00044
1.00031
1.0013
1.00101
1.00095
1.00119
1.00042
1.00051
1
1.00074
1.00029
1.00128
1.00108
1.00061
1.00239
1.0021
1.00444
1.00494
1.00751
1.00931
1.01145
1.01195
1.01192
1.01112
1.01149
1.01172
1.01163
1.01548
1.02228
1.02653
1.02719
1.02953
1.02981
1.03137
1.03136
1.03287
1.03292
1.03433
1.03448
1.03572
1.03601
1.03703
1.03747
1.03834
1.03894
1.03945
1.04035
1.04075
1.04151
1.042
1.04261
1.04307
1.04388
1.04397
1.04489
1.04528
1.04548
1.0458
1.04682
1.04704
1.04739
1.04732
1.04793
1.04829
1.04876
1.04891
1.04914
1.04941
1.04955
1.04948
1.04974
1.04965
1.04979
1.04966
1.04967
1.04943
1.04923
1.04892
1.04862
1.04822
1.04791
1.04762
1.04716
1.04668
1.0462
1.04576
1.04528
1.04462
1.04383
1.04313
1.04246
1.04172
1.04084
1.03977
1.03879
1.03745
1.03615
1.03458
1.03317
1.03148
1.0297
1.02789
1.02591
1.02378
1.02147
1.0192
1.01672
1.01318
1.00982
1.00774
1.00585
1.00273
0.999611
0.996254
0.993039
0.989743
0.986594
0.983147
0.980069
0.977059
0.974277
0.971472
0.968993
0.966951
0.965065
0.964142
0.962736
0.962833
0.961705
0.965072
0.963668
0.967936
0.967247
0.970854
0.971007
0.974946
0.975425
0.979234
0.979643
0.983206
0.983407
0.987376
0.987474
0.991186
0.991063
0.994682
0.994292
0.998099
0.997787
1.00091
1.00113
1.00421
1.00444
1.00775
1.00781
1.01129
1.01139
1.01514
1.01539
1.01922
1.01967
1.02315
1.02371
1.0275
1.02825
1.03189
1.03319
1.03711
1.03817
1.04245
1.04413
1.04858
1.05039
1.05533
1.05751
1.06259
1.06514
1.07083
1.07352
1.07892
1.08252
1.08712
1.09084
1.09443
1.09581
1.09529
1.09025
1.08431
1.07275
1.05889
1.03896
1.01823
0.997943
0.981394
0.96168
0.943891
0.92639
0.913352
0.897363
0.886723
0.878693
0.872146
0.867028
0.862426
0.860386
0.858686
0.859971
0.85859
0.859248
0.858369
0.860157
0.859867
0.862089
0.861834
0.862767
0.862661
0.862937
0.862271
0.86338
0.86254
0.863573
0.863052
0.863971
0.863374
0.862126
0.860229
0.860832
0.860456
0.861466
0.861204
0.86182
0.861711
0.862994
0.862747
0.863137
0.860263
0.859827
0.85697
0.857657
0.856114
0.856894
0.856081
0.856327
0.855124
0.856032
0.853827
0.854313
0.852774
0.854099
0.852648
0.853628
0.852708
0.856111
0.859206
0.872748
0.91174
0.949295
0.961396
0.964078
0.966325
0.969259
0.97255
0.975981
0.980215
0.984577
0.98858
0.992967
0.997554
1.00219
1.00688
1.01139
1.01629
1.02171
1.02728
1.03055
1.0342
1.03851
1.04337
1.04669
1.04975
1.05274
1.0563
1.05932
1.06215
1.06479
1.06737
1.06956
1.07176
1.07384
1.07567
1.07725
1.07885
1.08028
1.08148
1.08263
1.08375
1.08477
1.08563
1.08647
1.0872
1.08789
1.0885
1.08905
1.08954
1.09002
1.09037
1.09081
1.09105
1.09137
1.09151
1.09177
1.09191
1.09216
1.09213
1.09239
1.09234
1.09253
1.09242
1.09255
1.09241
1.09249
1.09235
1.09246
1.09234
1.09245
1.09236
1.09254
1.09246
1.09264
1.09263
1.09275
1.0928
1.09294
1.09291
1.09305
1.09316
1.0933
1.09335
1.09359
1.09375
1.09406
1.0942
1.09443
1.09437
1.09398
1.09398
1.09312
1.08507
1.07509
1.05745
1.04476
1.02748
1.01509
1.01343
1.01187
1.01184
1.00894
1.00736
1.00551
1.00469
1.00205
1.00223
1.00082
1.00062
1.00154
1.00019
1.00045
0.999805
1.0005
1.00029
1.00125
1.00097
1.001
1.00129
1.00028
1.00053
0.999845
1.00054
1.00026
1.00147
1.00081
1.00093
1.0024
1.00277
1.00438
1.0056
1.00735
1.00935
1.01142
1.01197
1.0119
1.01105
1.01145
1.01158
1.01112
1.01316
1.0166
1.02383
1.02291
1.02759
1.0266
1.02971
1.02903
1.03113
1.03102
1.03237
1.03277
1.03359
1.03428
1.03475
1.03569
1.03604
1.03701
1.03728
1.03832
1.03853
1.03945
1.03981
1.04055
1.04091
1.0417
1.04189
1.04277
1.04304
1.04339
1.04371
1.0446
1.04486
1.0453
1.04531
1.0458
1.04621
1.04674
1.04672
1.04716
1.04728
1.04755
1.04742
1.04767
1.04756
1.0477
1.04745
1.04752
1.04717
1.04694
1.04655
1.04624
1.04585
1.04553
1.04515
1.04461
1.04408
1.04356
1.04311
1.04254
1.04181
1.04096
1.04022
1.03945
1.03862
1.03764
1.03648
1.0354
1.03394
1.03255
1.03084
1.02933
1.0275
1.02562
1.02369
1.0216
1.0194
1.01699
1.01465
1.0121
1.00856
1.00525
1.00321
1.0013
0.998274
0.995403
0.992376
0.989522
0.986804
0.984097
0.981207
0.978433
0.975775
0.97329
0.970868
0.968581
0.966807
0.964979
0.964086
0.962759
0.962914
0.962188
0.96515
0.963683
0.9678
0.967018
0.970476
0.970993
0.974899
0.975473
0.979338
0.979754
0.983323
0.983277
0.987163
0.98727
0.990877
0.990969
0.994596
0.994429
0.997968
0.997592
1.00093
1.00106
1.00391
1.00445
1.00758
1.00793
1.01108
1.0114
1.01478
1.01536
1.0188
1.01953
1.0229
1.02358
1.02732
1.02814
1.0318
1.03272
1.03654
1.03792
1.04217
1.04384
1.04843
1.05016
1.05445
1.05723
1.06162
1.0645
1.06945
1.07318
1.07761
1.08171
1.08622
1.08961
1.09295
1.09427
1.09373
1.08861
1.08216
1.06923
1.05647
1.0363
1.01923
0.999109
0.983673
0.964697
0.948582
0.931729
0.919452
0.903689
0.894024
0.883495
0.877713
0.872372
0.869049
0.867
0.864856
0.865974
0.86442
0.864849
0.863477
0.864836
0.86429
0.86634
0.86595
0.867078
0.866075
0.866954
0.865943
0.866519
0.866052
0.866938
0.866319
0.866848
0.866195
0.865772
0.863407
0.863349
0.863408
0.86388
0.863459
0.864096
0.86395
0.864557
0.8654
0.864875
0.863032
0.861266
0.85944
0.858836
0.858339
0.857783
0.85827
0.857312
0.85687
0.855926
0.855942
0.854393
0.853548
0.852639
0.852914
0.851569
0.851159
0.852419
0.85494
0.865551
0.902514
0.940047
0.950998
0.952357
0.954048
0.956335
0.959495
0.962109
0.96616
0.970299
0.974446
0.978647
0.983405
0.988146
0.993138
0.998095
1.00341
1.00926
1.01561
1.0191
1.02353
1.02832
1.03382
1.03776
1.04144
1.04485
1.04897
1.05258
1.05593
1.05901
1.06216
1.06483
1.06741
1.06991
1.07215
1.07399
1.07589
1.07764
1.07911
1.08046
1.08179
1.08301
1.08404
1.08501
1.08588
1.08672
1.08743
1.08811
1.08869
1.08925
1.08968
1.0902
1.09053
1.09093
1.09115
1.09148
1.09165
1.09194
1.09199
1.09225
1.09226
1.09247
1.09241
1.09256
1.09248
1.09261
1.09251
1.09263
1.09254
1.09265
1.09259
1.09271
1.0927
1.09281
1.0928
1.09294
1.09308
1.09307
1.09312
1.09337
1.09331
1.09338
1.09355
1.09384
1.09384
1.09415
1.09428
1.09462
1.0946
1.09458
1.09452
1.09401
1.08781
1.08242
1.06399
1.04998
1.03101
1.01626
1.01388
1.01211
1.01163
1.00896
1.00751
1.00557
1.00407
1.00251
1.00267
1.00059
1.0011
1.00141
1.00018
1.00083
0.999969
1.00044
1.0003
1.00129
1.00101
1.00103
1.00116
1.00039
1.00055
1.00004
1.00077
1.00033
1.0013
1.00109
1.00076
1.00244
1.00216
1.00429
1.00484
1.00749
1.00935
1.01138
1.01202
1.01185
1.01126
1.0115
1.01168
1.0114
1.01223
1.01437
1.01988
1.0218
1.02302
1.02562
1.02532
1.02763
1.02723
1.02925
1.02904
1.0306
1.03075
1.03188
1.03221
1.03319
1.0336
1.03452
1.03486
1.03571
1.03619
1.03691
1.03738
1.03802
1.03841
1.03919
1.03936
1.04019
1.04061
1.04101
1.04132
1.04219
1.0424
1.04293
1.04293
1.04353
1.04385
1.04445
1.04448
1.04479
1.04497
1.04532
1.04512
1.0454
1.04522
1.04533
1.04511
1.04506
1.04474
1.04438
1.04405
1.0437
1.04335
1.04297
1.04251
1.04189
1.04134
1.04081
1.04032
1.03965
1.03885
1.03796
1.03718
1.0363
1.03539
1.03434
1.03308
1.03191
1.03031
1.02886
1.02704
1.02542
1.02349
1.02157
1.01951
1.01732
1.0151
1.01264
1.01022
1.00767
1.00426
1.00135
0.99948
0.998008
0.99582
0.993249
0.990687
0.988241
0.985807
0.983463
0.980841
0.97833
0.975778
0.97342
0.970995
0.968964
0.967114
0.965435
0.964434
0.963143
0.96313
0.962624
0.965361
0.964387
0.968272
0.967745
0.970902
0.971449
0.975156
0.975863
0.979262
0.980087
0.983288
0.983767
0.987332
0.987871
0.991238
0.99151
0.994691
0.994709
0.998011
0.998012
1.00072
1.00147
1.00442
1.00483
1.00785
1.00838
1.01132
1.01179
1.01491
1.01581
1.01902
1.02002
1.02337
1.02431
1.02776
1.02873
1.03212
1.03356
1.03709
1.03877
1.04241
1.04451
1.04848
1.05122
1.05517
1.05804
1.06237
1.06521
1.06955
1.07319
1.07761
1.0809
1.08509
1.08836
1.09147
1.09272
1.09201
1.08664
1.08142
1.07204
1.05874
1.04202
1.02597
1.00527
0.991007
0.970928
0.954473
0.936246
0.924225
0.907416
0.89652
0.887225
0.879639
0.873564
0.869005
0.864422
0.863391
0.861227
0.863123
0.861688
0.862467
0.861606
0.863132
0.862951
0.863971
0.864818
0.863838
0.864838
0.864663
0.864183
0.864753
0.864322
0.864776
0.865251
0.864126
0.863126
0.861946
0.861195
0.861724
0.861626
0.862027
0.862171
0.862616
0.86296
0.863787
0.863388
0.861916
0.859995
0.858323
0.857709
0.857113
0.856619
0.856982
0.855974
0.855995
0.854667
0.854297
0.853039
0.852867
0.85145
0.851416
0.85013
0.850155
0.850647
0.853063
0.861015
0.895891
0.934502
0.944346
0.944486
0.945538
0.946943
0.94975
0.951105
0.953974