/*--------------------------------*- C++ -*----------------------------------*\
| =========                 |                                                 |
| \\      /  F ield         | OpenFOAM: The Open Source CFD Toolbox           |
|  \\    /   O peration     | Version:  v2006                                 |
|   \\  /    A nd           | Website:  www.openfoam.com                      |
|    \\/     M anipulation  |                                                 |
\*---------------------------------------------------------------------------*/
FoamFile
{
    version     2.0;
    format      ascii;
    class       volVectorField;
    location    "40";
    object      U;
}
// * * * * * * * * * * * * * * * * * * * * * * * * * * * * * * * * * * * * * //

dimensions      [0 1 -1 0 0 0 0];


internalField   nonuniform List<vector> 
93840
(
(0.866711 0.0449484 -4.77512e-17)
(0.861761 0.0387756 2.54045e-17)
(0.856908 0.0434576 1.93139e-16)
(0.865032 0.0421937 5.13766e-17)
(0.858188 0.0361142 2.00005e-17)
(0.861596 0.0418117 -3.08454e-16)
(0.859284 0.0342472 3.32564e-16)
(0.857417 0.037957 8.54747e-17)
(0.85791 0.0320625 -1.92794e-17)
(0.857608 0.0335374 -1.78806e-16)
(0.852709 0.027354 -3.31657e-16)
(0.850035 0.0277461 1.1491e-16)
(0.843195 0.0217727 -5.95716e-16)
(0.840063 0.0229534 4.8219e-16)
(0.832552 0.017625 -4.26237e-17)
(0.823482 0.0208223 7.7003e-17)
(0.816593 0.0166199 6.98793e-17)
(0.810761 0.0238766 3.21068e-17)
(0.811917 0.0246368 8.84223e-17)
(0.810142 0.0281962 7.61097e-17)
(0.808277 0.0236601 1.59821e-16)
(0.77663 0.0194687 8.47383e-17)
(0.711745 0.0171831 1.8486e-16)
(0.655743 0.0145996 6.77557e-17)
(0.643791 0.0101536 1.72895e-16)
(0.605746 0.00175022 6.63572e-17)
(0.634034 0.00582065 1.57537e-16)
(0.636988 -0.00244554 6.86708e-17)
(0.602523 -0.00627118 1.47427e-16)
(0.586136 -0.00138551 6.4676e-17)
(0.555723 -0.00511873 1.31581e-16)
(0.503899 -0.00439375 6.52907e-17)
(0.505306 -0.0262963 1.17216e-16)
(0.538036 -0.030546 7.20325e-17)
(0.483149 -0.0254642 1.11154e-16)
(0.51522 -0.0309577 7.70322e-17)
(0.472982 -0.022922 1.06554e-16)
(0.498621 -0.0292107 8.09037e-17)
(0.464209 -0.0210323 1.03217e-16)
(0.483925 -0.0260507 8.3691e-17)
(0.455728 -0.0186325 1.01027e-16)
(0.472851 -0.0221913 8.56176e-17)
(0.449126 -0.0168463 9.98433e-17)
(0.462868 -0.0189121 8.65523e-17)
(0.442672 -0.0154227 9.93377e-17)
(0.452752 -0.0162966 8.70458e-17)
(0.434655 -0.0133329 9.87408e-17)
(0.443394 -0.0130875 8.7881e-17)
(0.42828 -0.0110902 9.77249e-17)
(0.434137 -0.0105649 8.91449e-17)
(0.420655 -0.00833749 9.65316e-17)
(0.426614 -0.00771661 8.99732e-17)
(0.413745 -0.00647557 9.58377e-17)
(0.414561 -0.00470607 9.01275e-17)
(0.405313 -0.00127293 9.59787e-17)
(0.412002 -9.29117e-05 8.99372e-17)
(0.40422 0.000128577 9.58742e-17)
(0.404947 0.000483089 9.02305e-17)
(0.395135 0.00147357 9.55386e-17)
(0.395858 0.00390361 9.11108e-17)
(0.391589 0.00578095 9.46914e-17)
(0.392288 0.00631367 9.21933e-17)
(0.386275 0.00879561 9.49079e-17)
(0.389148 0.0109446 9.27352e-17)
(0.386969 0.0122202 9.58153e-17)
(0.388431 0.0139096 9.30717e-17)
(0.385904 0.0161091 9.63818e-17)
(0.388039 0.0175505 9.29791e-17)
(0.385589 0.0188831 9.68723e-17)
(0.386322 0.020688 9.29131e-17)
(0.384648 0.0221705 9.60843e-17)
(0.384543 0.0236279 9.31586e-17)
(0.382449 0.0253949 9.47329e-17)
(0.382683 0.0268473 9.281e-17)
(0.380724 0.0281253 9.23322e-17)
(0.380602 0.0297458 9.04168e-17)
(0.379682 0.0310199 9.11545e-17)
(0.380091 0.0325878 8.93824e-17)
(0.380972 0.0340668 8.9262e-17)
(0.382927 0.0353176 8.7618e-17)
(0.383641 0.0366371 8.67106e-17)
(0.386021 0.0381935 8.60481e-17)
(0.389518 0.0400423 8.56357e-17)
(0.394266 0.0422166 8.48177e-17)
(0.395326 0.0435511 8.27007e-17)
(0.396832 0.0449076 8.17603e-17)
(0.401107 0.0464118 8.07064e-17)
(0.406701 0.0481915 7.81427e-17)
(0.407566 0.0496321 7.66187e-17)
(0.409684 0.051354 7.28357e-17)
(0.413896 0.0533878 7.28832e-17)
(0.420424 0.0552634 6.71823e-17)
(0.423316 0.0567321 6.39746e-17)
(0.428041 0.0583018 5.82069e-17)
(0.433175 0.0599267 5.63544e-17)
(0.439448 0.0616238 5.05122e-17)
(0.443855 0.0627347 4.86174e-17)
(0.45014 0.0642352 4.01224e-17)
(0.456588 0.0656819 3.79412e-17)
(0.462971 0.0671602 3.48062e-17)
(0.47053 0.0683719 2.84339e-17)
(0.478131 0.0695819 2.55922e-17)
(0.484429 0.071498 2.53843e-17)
(0.500011 0.0752244 1.68883e-17)
(0.516692 0.0745507 1.6996e-17)
(0.521997 0.0711332 7.93307e-18)
(0.523169 0.0715286 1.38626e-17)
(0.534856 0.0746293 6.22125e-18)
(0.54713 0.0750384 1.59326e-17)
(0.561361 0.075337 8.68823e-18)
(0.573767 0.0746875 1.58487e-17)
(0.588217 0.0741002 8.69724e-18)
(0.600565 0.072999 1.71798e-17)
(0.617897 0.0725848 1.36698e-17)
(0.633193 0.0701272 2.44716e-17)
(0.649953 0.0676681 2.46747e-17)
(0.664123 0.0642066 3.01129e-17)
(0.682124 0.0615644 3.19948e-17)
(0.696217 0.0560545 3.70231e-17)
(0.711902 0.0514979 3.82521e-17)
(0.723727 0.0447826 4.2308e-17)
(0.738349 0.039963 4.47683e-17)
(0.746443 0.0306116 4.73333e-17)
(0.757225 0.0246501 4.81425e-17)
(0.760448 0.0138348 5.02989e-17)
(0.758566 0.0089471 4.94627e-17)
(0.765328 -0.000269256 5.09306e-17)
(0.757407 -0.0073124 4.9417e-17)
(0.759846 -0.0115793 4.98177e-17)
(0.758441 -0.0207158 4.76262e-17)
(0.752831 -0.0252641 4.71283e-17)
(0.749912 -0.0315112 4.44586e-17)
(0.743576 -0.0351849 4.36111e-17)
(0.741869 -0.0399074 4.04871e-17)
(0.737497 -0.0435102 4.01139e-17)
(0.735312 -0.0487621 3.65685e-17)
(0.730724 -0.0514883 3.72005e-17)
(0.727661 -0.0552945 3.57121e-17)
(0.724156 -0.0582804 3.62624e-17)
(0.721601 -0.0617276 3.48238e-17)
(0.719828 -0.0652452 3.48579e-17)
(0.717302 -0.0691793 3.24555e-17)
(0.714409 -0.0726028 3.2073e-17)
(0.711722 -0.0754754 3.17172e-17)
(0.710052 -0.0786679 2.96729e-17)
(0.708929 -0.0825064 2.82067e-17)
(0.706113 -0.0853512 2.71575e-17)
(0.704988 -0.0900057 2.55783e-17)
(0.700734 -0.0940119 2.43789e-17)
(0.698321 -0.0979886 2.36575e-17)
(0.694715 -0.101675 2.06605e-17)
(0.692168 -0.105863 2.01111e-17)
(0.68825 -0.109926 1.71326e-17)
(0.683979 -0.114122 1.66062e-17)
(0.678923 -0.118567 1.34923e-17)
(0.674403 -0.122932 1.12734e-17)
(0.668753 -0.127156 7.91034e-18)
(0.662999 -0.131954 6.46175e-18)
(0.655693 -0.136206 2.98512e-18)
(0.649337 -0.139931 2.88496e-18)
(0.642854 -0.143386 8.18463e-19)
(0.637525 -0.148771 1.81974e-18)
(0.629037 -0.154284 2.66856e-19)
(0.620424 -0.160262 2.03216e-18)
(0.609979 -0.165562 2.3761e-18)
(0.598697 -0.171939 5.32176e-18)
(0.585205 -0.176597 6.49451e-18)
(0.572015 -0.181669 1.10915e-17)
(0.557869 -0.18639 1.25411e-17)
(0.542286 -0.193967 1.86206e-17)
(0.521299 -0.199238 2.1268e-17)
(0.498063 -0.204602 2.69704e-17)
(0.474696 -0.206521 3.06592e-17)
(0.450689 -0.209391 3.75512e-17)
(0.417517 -0.21195 4.40755e-17)
(0.380552 -0.212792 4.92256e-17)
(0.337103 -0.209184 5.37052e-17)
(0.282771 -0.197127 5.73084e-17)
(0.225475 -0.172908 6.23091e-17)
(0.159718 -0.130554 6.53291e-17)
(0.103853 -0.0867498 7.18559e-17)
(0.00795734 0.0525003 5.68931e-17)
(-0.00679544 0.15804 6.84666e-17)
(-0.00679039 0.410502 7.87877e-17)
(0.101013 0.549616 7.96153e-17)
(0.223976 0.733612 7.67983e-17)
(0.449472 0.791417 7.37404e-17)
(0.617145 0.80097 7.0974e-17)
(0.741291 0.728917 6.80767e-17)
(0.783564 0.684273 6.50737e-17)
(0.895411 0.682218 6.23183e-17)
(0.985039 0.648807 5.89277e-17)
(1.0438 0.603319 5.62565e-17)
(1.0768 0.557035 5.28517e-17)
(1.12476 0.523689 4.9539e-17)
(1.14111 0.486927 4.68357e-17)
(1.15622 0.455753 4.35123e-17)
(1.16006 0.42354 4.02142e-17)
(1.16919 0.400717 3.69232e-17)
(1.16801 0.37466 3.29306e-17)
(1.1582 0.354418 2.96299e-17)
(1.15434 0.336346 2.62802e-17)
(1.14743 0.317633 2.30912e-17)
(1.1442 0.302194 1.80659e-17)
(1.13644 0.28678 1.54446e-17)
(1.13036 0.274094 1.12634e-17)
(1.12075 0.261674 8.62429e-18)
(1.11462 0.250477 4.42628e-18)
(1.10225 0.238065 2.1183e-18)
(1.09713 0.228672 -1.65475e-18)
(1.08993 0.217812 -3.69697e-18)
(1.08594 0.208264 -6.94319e-18)
(1.07807 0.198864 -7.88394e-18)
(1.07393 0.189936 -1.02389e-17)
(1.06434 0.180601 -1.08548e-17)
(1.06007 0.172898 -1.17268e-17)
(1.05131 0.165658 -1.11949e-17)
(1.04734 0.158265 -1.24758e-17)
(1.03877 0.150632 -1.23471e-17)
(1.03665 0.142633 -1.33525e-17)
(1.03468 0.135594 -1.27518e-17)
(1.03395 0.12794 -1.3751e-17)
(1.02383 0.121752 -1.36965e-17)
(1.01932 0.116258 -1.47541e-17)
(1.00777 0.110081 -1.47313e-17)
(1.00309 0.105746 -1.47807e-17)
(0.993325 0.10062 -1.49337e-17)
(0.988382 0.0962305 -1.5829e-17)
(0.977698 0.0913929 -1.58341e-17)
(0.973367 0.087342 -1.67034e-17)
(0.969066 0.0829315 -1.70606e-17)
(0.975549 0.0766697 -1.86514e-17)
(0.971352 0.0709253 -1.84579e-17)
(0.976898 0.0652768 -1.992e-17)
(0.965799 0.0588609 -1.98641e-17)
(0.9661 0.0550541 -2.21076e-17)
(0.955894 0.0508643 -2.17238e-17)
(0.953652 0.0463616 -2.27042e-17)
(0.946524 0.0432638 -2.12575e-17)
(0.947616 0.0389568 -1.96523e-17)
(0.940639 0.0339401 -1.62953e-17)
(0.943079 0.0299381 -1.36141e-17)
(0.938133 0.0268403 -8.97932e-18)
(0.939568 0.0211808 -4.17704e-18)
(0.933333 0.0163715 1.68375e-18)
(0.932402 0.0119425 6.76011e-18)
(0.929729 0.0100201 1.29219e-17)
(0.927904 0.00205946 1.77966e-17)
(0.914034 0.000407365 2.29241e-17)
(0.892157 -0.0021236 2.71815e-17)
(0.856147 -0.00846224 3.06638e-17)
(0.710055 -0.00719543 3.42379e-17)
(0.497554 -0.00953693 3.70474e-17)
(0.432534 -0.0118555 3.83911e-17)
(0.445611 -0.0155848 3.90159e-17)
(0.461395 -0.018202 3.99881e-17)
(0.472886 -0.0212993 4.06013e-17)
(0.477666 -0.0244468 4.0783e-17)
(0.477473 -0.0277016 4.0761e-17)
(0.475502 -0.0300143 3.78572e-17)
(0.471243 -0.0324837 3.57594e-17)
(0.464401 -0.0343375 3.11967e-17)
(0.457226 -0.0362318 2.71829e-17)
(0.447769 -0.037692 2.03318e-17)
(0.437845 -0.0390861 1.46683e-17)
(0.426686 -0.0398027 5.58792e-18)
(0.416764 -0.0409083 2.32125e-19)
(0.404169 -0.0428546 -7.66548e-18)
(0.384083 -0.0432451 -1.05749e-17)
(0.366518 -0.0401593 -1.46502e-17)
(0.361971 -0.0389377 -1.48919e-17)
(0.354988 -0.0410005 -1.45606e-17)
(0.338696 -0.0423028 -1.05652e-17)
(0.318771 -0.0398677 -8.34823e-18)
(0.310119 -0.0375986 -4.20499e-18)
(0.302585 -0.0374949 -1.08627e-18)
(0.291536 -0.0383597 3.33249e-18)
(0.276528 -0.0374603 3.86305e-18)
(0.264383 -0.0362073 6.27155e-18)
(0.251951 -0.0350826 8.38629e-18)
(0.240861 -0.0341301 1.1072e-17)
(0.229271 -0.0331766 1.4873e-17)
(0.217763 -0.0320042 1.77801e-17)
(0.205923 -0.0307149 2.12317e-17)
(0.195326 -0.0295439 2.81645e-17)
(0.184168 -0.0279989 3.36208e-17)
(0.173711 -0.0267664 4.34089e-17)
(0.163609 -0.0255032 5.39564e-17)
(0.154646 -0.0243425 6.91232e-17)
(0.144491 -0.0231324 8.00042e-17)
(0.135519 -0.0218196 9.55259e-17)
(0.126807 -0.0205913 1.04382e-16)
(0.118159 -0.019309 1.1199e-16)
(0.109621 -0.0181221 1.2334e-16)
(0.10178 -0.0169039 1.27988e-16)
(0.0939671 -0.0158505 1.31885e-16)
(0.08618 -0.0145346 1.32912e-16)
(0.0787817 -0.0134913 1.33771e-16)
(0.0710977 -0.0120792 1.31006e-16)
(0.0643042 -0.0111488 1.31946e-16)
(0.0577619 -0.009823 1.26462e-16)
(0.0523833 -0.00913127 1.24081e-16)
(0.0464916 -0.00801957 1.18987e-16)
(0.0411235 -0.00726301 1.14201e-16)
(0.0352501 -0.00617108 1.12727e-16)
(0.0302391 -0.00542925 1.02382e-16)
(0.0253187 -0.00447325 1.0047e-16)
(0.0212393 -0.00385284 9.65187e-17)
(0.0173146 -0.00298732 8.62228e-17)
(0.0137305 -0.00234896 7.86522e-17)
(0.00992119 -0.0014416 7.3456e-17)
(0.00565436 -0.000422466 6.53874e-17)
(0.000522005 0.00136236 5.37171e-17)
(-0.00796588 0.00375769 4.45593e-17)
(-0.0168452 0.00555273 3.39825e-17)
(-0.0242846 0.00582633 3.39559e-17)
(-0.0286553 0.00516923 2.47013e-17)
(-0.0306549 0.00450612 2.67238e-17)
(-0.029984 0.00409969 2.35472e-17)
(-0.030094 0.00427039 2.68819e-17)
(-0.0279222 0.00472935 2.1578e-17)
(-0.0280988 0.00464976 3.04407e-17)
(-0.0236057 0.00462779 2.54422e-17)
(-0.0251423 0.00434228 2.81444e-17)
(-0.0196706 0.00372715 2.8396e-17)
(-0.0206038 0.00311706 2.74265e-17)
(-0.0124027 0.000735464 2.95849e-17)
(-0.0100704 0.00243467 3.06199e-17)
(-0.00791829 5.02372e-05 3.18712e-17)
(-0.00622992 -0.000902657 3.38557e-17)
(0.00122062 -0.000893035 3.56578e-17)
(0.00247672 -0.00372187 3.64597e-17)
(0.0126864 -0.00502022 3.88772e-17)
(0.0105367 -0.0109294 4.06741e-17)
(0.0447402 -0.0343957 4.37754e-17)
(0.0579223 -0.0779058 5.79829e-17)
(0.145113 0.0189037 1.75685e-17)
(0.215826 0.00165389 1.06875e-16)
(0.318647 0.0212476 3.14478e-17)
(0.415805 0.0129978 1.27665e-16)
(0.491831 0.0173765 5.07169e-17)
(0.616021 0.0181399 1.46847e-16)
(0.63739 0.00421535 6.82126e-17)
(0.65497 0.0117467 1.66366e-16)
(0.64651 0.0153675 7.10711e-17)
(0.696695 0.0176311 1.80469e-16)
(0.772411 0.019874 8.25275e-17)
(0.806097 0.0255112 1.46243e-16)
(0.813424 0.0279519 8.36899e-17)
(0.81187 0.0246258 9.04669e-17)
(0.810861 0.0242708 3.72669e-17)
(0.816466 0.0164014 7.1903e-17)
(0.823567 0.0209266 8.08733e-17)
(0.83276 0.0178508 6.35219e-17)
(0.83819 0.0232434 -2.13288e-16)
(0.84678 0.0210943 5.98858e-16)
(0.851224 0.0277654 -1.75968e-16)
(0.85184 0.0273811 5.76155e-16)
(0.858426 0.0332735 -3.36081e-16)
(0.857978 0.0321417 1.42721e-16)
(0.856842 0.0380035 -1.27348e-16)
(0.859614 0.0339492 -1.71665e-16)
(0.861687 0.0419795 -4.11332e-16)
(0.858219 0.0358237 -1.65175e-16)
(0.865128 0.0422932 1.17164e-16)
(0.856875 0.0434056 -1.74373e-17)
(0.861826 0.0390707 -1.41928e-16)
(0.866719 0.0452565 -1.06444e-16)
(0.866715 0.0451799 -9.4867e-17)
(0.861809 0.0390691 -1.0846e-16)
(0.856894 0.043337 1.51587e-17)
(0.865107 0.0422677 1.07042e-16)
(0.858197 0.0358185 -1.03664e-16)
(0.861645 0.041992 -1.64688e-16)
(0.859576 0.0339503 -1.99284e-16)
(0.856889 0.037987 -1.24556e-16)
(0.858072 0.0321216 1.44262e-16)
(0.858424 0.0332914 -2.83552e-16)
(0.852425 0.0272203 4.13496e-16)
(0.852043 0.0275942 -2.31033e-16)
(0.845872 0.0213245 7.7585e-16)
(0.838405 0.0232175 -6.11864e-17)
(0.83265 0.0180991 5.74441e-17)
(0.823498 0.0209535 4.85133e-17)
(0.816557 0.0166828 8.73844e-17)
(0.811033 0.0240779 3.62444e-17)
(0.812215 0.0246972 8.85122e-17)
(0.815035 0.0278674 7.26565e-17)
(0.812194 0.0255219 1.54959e-16)
(0.794681 0.0207672 8.1003e-17)
(0.737803 0.0183816 1.81967e-16)
(0.679893 0.0155448 7.00144e-17)
(0.673738 0.014927 1.78838e-16)
(0.629723 0.00761381 6.60444e-17)
(0.612089 0.0108713 1.57718e-16)
(0.604904 0.00185894 6.92192e-17)
(0.595087 -0.0045508 1.51185e-16)
(0.588677 -0.00817333 7.20047e-17)
(0.583297 -0.0172625 1.41757e-16)
(0.579946 -0.0175079 7.4642e-17)
(0.574837 -0.00716641 1.34316e-16)
(0.56345 -0.0246167 7.85536e-17)
(0.557075 -0.0180361 1.2864e-16)
(0.549088 -0.0239598 8.3534e-17)
(0.542736 -0.0210857 1.23786e-16)
(0.537043 -0.0223961 8.78473e-17)
(0.530481 -0.0211613 1.19703e-16)
(0.526409 -0.0205173 9.15351e-17)
(0.519094 -0.019273 1.16283e-16)
(0.517504 -0.017999 9.46453e-17)
(0.509496 -0.0171507 1.13465e-16)
(0.509022 -0.0158698 9.69446e-17)
(0.500568 -0.0150282 1.11679e-16)
(0.500377 -0.0140256 9.81025e-17)
(0.491438 -0.0125614 1.10773e-16)
(0.492067 -0.0114348 9.88635e-17)
(0.483461 -0.00984931 1.09834e-16)
(0.483673 -0.00922659 9.99434e-17)
(0.475132 -0.00685398 1.08389e-16)
(0.476205 -0.00632884 1.0121e-16)
(0.467535 -0.00498467 1.07149e-16)
(0.466069 -0.0034129 1.02031e-16)
(0.459701 7.43321e-05 1.06618e-16)
(0.46257 0.000862256 1.02107e-16)
(0.456693 0.00156696 1.06696e-16)
(0.45596 0.00171069 1.02267e-16)
(0.448858 0.00327792 1.06671e-16)
(0.448914 0.00548959 1.02653e-16)
(0.445488 0.00708815 1.06352e-16)
(0.445792 0.0081108 1.03641e-16)
(0.441294 0.0103257 1.06156e-16)
(0.44323 0.0125051 1.04066e-16)
(0.441118 0.0140838 1.06467e-16)
(0.442181 0.0160006 1.04115e-16)
(0.439615 0.0183732 1.06609e-16)
(0.441328 0.0200432 1.0374e-16)
(0.439167 0.0217354 1.06721e-16)
(0.439973 0.0237115 1.03159e-16)
(0.438451 0.0255374 1.05843e-16)
(0.438523 0.0272348 1.02415e-16)
(0.4368 0.0292609 1.04278e-16)
(0.43722 0.0308937 1.01638e-16)
(0.435991 0.0324437 1.02545e-16)
(0.436677 0.0341486 1.00905e-16)
(0.436996 0.0356006 1.00708e-16)
(0.438693 0.0373188 9.92698e-17)
(0.440524 0.0390766 9.96984e-17)
(0.442712 0.0405553 9.78755e-17)
(0.443672 0.042125 9.76652e-17)
(0.446307 0.0436556 9.6193e-17)
(0.449087 0.0455839 9.55938e-17)
(0.452497 0.0480197 9.30434e-17)
(0.454256 0.0498152 9.20057e-17)
(0.457137 0.0512034 8.98226e-17)
(0.461718 0.0527399 8.82537e-17)
(0.46547 0.0547825 8.55046e-17)
(0.467131 0.0567261 8.30421e-17)
(0.470029 0.0584621 7.92368e-17)
(0.475245 0.0605907 7.63209e-17)
(0.481242 0.0627637 6.93851e-17)
(0.484937 0.064518 6.77741e-17)
(0.490365 0.066128 6.14121e-17)
(0.496483 0.0679559 5.87441e-17)
(0.503034 0.0699508 5.19302e-17)
(0.508334 0.0713194 4.83144e-17)
(0.515654 0.0729018 4.27688e-17)
(0.522929 0.0746159 3.88978e-17)
(0.530221 0.0761982 3.16588e-17)
(0.538962 0.077443 3.06853e-17)
(0.547661 0.0789115 2.56454e-17)
(0.555541 0.0807459 1.98461e-17)
(0.572025 0.0845219 1.69061e-17)
(0.588714 0.084078 1.56727e-17)
(0.595008 0.0808132 1.30201e-17)
(0.598344 0.0812306 1.52715e-17)
(0.611452 0.0841319 1.14654e-17)
(0.624835 0.0844625 1.45752e-17)
(0.640257 0.0846853 1.09035e-17)
(0.653912 0.0838917 1.7097e-17)
(0.669616 0.0831445 1.36694e-17)
(0.683367 0.0816868 2.14708e-17)
(0.701824 0.0811035 2.07006e-17)
(0.718061 0.0781641 2.93863e-17)
(0.73587 0.0753203 2.99666e-17)
(0.751047 0.071348 3.73154e-17)
(0.76971 0.0680927 3.89359e-17)
(0.784146 0.0620883 4.44542e-17)
(0.800366 0.0566818 4.58829e-17)
(0.812261 0.049438 5.11269e-17)
(0.826836 0.0435122 5.0557e-17)
(0.834339 0.0340595 5.47847e-17)
(0.844755 0.0272205 5.42147e-17)
(0.847071 0.0155003 5.66875e-17)
(0.845366 0.00908219 5.55536e-17)
(0.850969 -0.00023772 5.67041e-17)
(0.842847 -0.00778135 5.47176e-17)
(0.844888 -0.0130027 5.47804e-17)
(0.842155 -0.0221124 5.20544e-17)
(0.83642 -0.026617 5.11916e-17)
(0.832819 -0.0337082 4.79624e-17)
(0.82612 -0.0375677 4.68807e-17)
(0.823917 -0.0428549 4.38296e-17)
(0.818645 -0.0477601 4.29874e-17)
(0.816064 -0.0532068 4.08743e-17)
(0.810776 -0.0571535 4.08578e-17)
(0.807286 -0.0608473 3.94998e-17)
(0.803144 -0.0642057 4.01922e-17)
(0.800104 -0.0675047 3.83617e-17)
(0.797587 -0.0712304 3.81434e-17)
(0.794355 -0.0758314 3.63987e-17)
(0.790859 -0.0794427 3.5481e-17)
(0.787634 -0.0827981 3.30386e-17)
(0.785197 -0.0866 3.16032e-17)
(0.783357 -0.0900791 2.90577e-17)
(0.779468 -0.0943827 2.80092e-17)
(0.777279 -0.0982366 2.58816e-17)
(0.772141 -0.102613 2.53861e-17)
(0.768964 -0.106765 2.26877e-17)
(0.764297 -0.110751 2.16288e-17)
(0.760629 -0.114928 1.86574e-17)
(0.755362 -0.119321 1.72938e-17)
(0.749966 -0.123895 1.45771e-17)
(0.743793 -0.127946 1.17986e-17)
(0.738025 -0.132457 9.19562e-18)
(0.730685 -0.136952 6.39817e-18)
(0.723636 -0.14146 4.68615e-18)
(0.714942 -0.145947 3.24994e-18)
(0.70723 -0.149831 2.2049e-18)
(0.698459 -0.153559 2.3489e-18)
(0.690532 -0.158505 3.98883e-18)
(0.679197 -0.163332 5.80814e-18)
(0.668101 -0.168084 9.22395e-18)
(0.654247 -0.17304 1.37087e-17)
(0.63999 -0.17741 1.901e-17)
(0.622846 -0.181499 2.47482e-17)
(0.606174 -0.184411 3.08745e-17)
(0.586791 -0.187629 3.95197e-17)
(0.566866 -0.191655 4.52185e-17)
(0.540696 -0.194614 5.50069e-17)
(0.51305 -0.19475 6.10861e-17)
(0.482458 -0.193727 6.92158e-17)
(0.451593 -0.192675 7.39983e-17)
(0.415051 -0.191748 7.98065e-17)
(0.373914 -0.185598 8.51287e-17)
(0.329616 -0.178528 8.70796e-17)
(0.280613 -0.162433 8.84511e-17)
(0.227128 -0.133306 8.83541e-17)
(0.168201 -0.0901904 8.39184e-17)
(0.115305 -0.0251895 8.48065e-17)
(0.0638397 0.0678723 7.04587e-17)
(0.061155 0.197226 9.90136e-17)
(0.0546295 0.338394 1.03433e-16)
(0.149139 0.441135 1.01044e-16)
(0.276006 0.603199 9.36993e-17)
(0.460969 0.670195 8.78213e-17)
(0.620112 0.707228 8.26071e-17)
(0.752387 0.681824 8.01237e-17)
(0.813604 0.667172 7.56808e-17)
(0.913836 0.663476 7.37125e-17)
(1.0058 0.642025 6.91083e-17)
(1.08139 0.609031 6.68692e-17)
(1.12425 0.572342 6.28107e-17)
(1.18021 0.542047 6.03108e-17)
(1.20889 0.508876 5.65428e-17)
(1.23295 0.481642 5.35701e-17)
(1.24596 0.454239 4.83458e-17)
(1.26136 0.43182 4.57093e-17)
(1.26809 0.408072 4.11597e-17)
(1.26541 0.386705 3.74503e-17)
(1.26489 0.369672 3.26015e-17)
(1.26005 0.351847 2.94005e-17)
(1.2594 0.336175 2.31254e-17)
(1.25357 0.320343 1.9065e-17)
(1.24957 0.307037 1.4485e-17)
(1.2407 0.293414 1.11347e-17)
(1.23564 0.28103 6.42895e-18)
(1.22341 0.268065 2.89887e-18)
(1.21846 0.256631 -1.17087e-18)
(1.21012 0.244952 -3.8806e-18)
(1.20642 0.234504 -7.30025e-18)
(1.19828 0.223526 -9.29489e-18)
(1.19434 0.213267 -1.19802e-17)
(1.18431 0.203096 -1.35686e-17)
(1.18044 0.195206 -1.4783e-17)
(1.1714 0.186393 -1.51579e-17)
(1.16763 0.178521 -1.63836e-17)
(1.1587 0.169475 -1.65954e-17)
(1.15625 0.16315 -1.77775e-17)
(1.15369 0.152168 -1.75626e-17)
(1.15365 0.14473 -1.81808e-17)
(1.14384 0.137359 -1.79583e-17)
(1.14019 0.131313 -1.88592e-17)
(1.12861 0.125216 -1.88735e-17)
(1.12455 0.120191 -2.05155e-17)
(1.11433 0.114635 -1.95706e-17)
(1.1099 0.10981 -2.1151e-17)
(1.09876 0.104058 -2.13275e-17)
(1.09492 0.0995578 -2.28163e-17)
(1.08892 0.0944899 -2.20727e-17)
(1.0954 0.0876922 -2.34996e-17)
(1.09034 0.0807794 -2.33893e-17)
(1.09648 0.0743962 -2.49757e-17)
(1.08548 0.0681977 -2.57427e-17)
(1.08662 0.0633089 -2.68196e-17)
(1.07603 0.0586231 -2.69986e-17)
(1.07465 0.0538093 -2.79823e-17)
(1.06647 0.0491677 -2.71198e-17)
(1.06821 0.0443191 -2.62057e-17)
(1.05994 0.0402912 -2.36747e-17)
(1.06352 0.0348226 -2.03133e-17)
(1.05688 0.0300083 -1.56024e-17)
(1.05989 0.0241672 -1.08584e-17)
(1.05167 0.020553 -4.7005e-18)
(1.0534 0.0146826 9.72083e-19)
(1.0472 0.0103776 7.92318e-18)
(1.04898 0.00273381 1.34869e-17)
(1.03312 0.00169126 1.9761e-17)
(1.01411 -0.00138721 2.48122e-17)
(0.981454 -0.00661061 2.94077e-17)
(0.839346 0.00204832 3.43805e-17)
(0.631384 0.00143457 3.84943e-17)
(0.555295 -0.0122778 4.03725e-17)
(0.555433 -0.0210143 4.12151e-17)
(0.56285 -0.0238264 4.21295e-17)
(0.568516 -0.0268004 4.24293e-17)
(0.569456 -0.0297606 4.34754e-17)
(0.566203 -0.0329538 4.25436e-17)
(0.561767 -0.0355337 4.26971e-17)
(0.555251 -0.038085 4.03689e-17)
(0.546541 -0.0399613 3.7366e-17)
(0.537484 -0.0420528 3.1839e-17)
(0.526334 -0.0434871 2.54928e-17)
(0.514677 -0.044973 1.84785e-17)
(0.501888 -0.0457315 1.18183e-17)
(0.490105 -0.046948 3.20384e-18)
(0.47603 -0.0486662 -3.09563e-18)
(0.454802 -0.049046 -9.50902e-18)
(0.435389 -0.0462655 -1.46498e-17)
(0.428187 -0.0453478 -1.64137e-17)
(0.419402 -0.0470357 -1.67847e-17)
(0.402285 -0.0481321 -1.4941e-17)
(0.381092 -0.0456287 -1.20551e-17)
(0.370434 -0.0438194 -6.88679e-18)
(0.361067 -0.043729 -5.75475e-18)
(0.348874 -0.044105 -2.23554e-18)
(0.332735 -0.0432963 1.63847e-18)
(0.319527 -0.041874 4.22666e-18)
(0.30559 -0.0405146 7.70775e-18)
(0.293231 -0.0395938 7.80469e-18)
(0.280626 -0.0383367 1.01337e-17)
(0.267997 -0.0370934 1.42901e-17)
(0.254773 -0.0358857 1.77359e-17)
(0.243261 -0.0347498 2.18932e-17)
(0.231204 -0.0332337 2.98176e-17)
(0.219452 -0.0316811 3.7155e-17)
(0.208214 -0.0303518 4.63187e-17)
(0.198683 -0.0291741 5.66833e-17)
(0.18762 -0.0275115 6.95138e-17)
(0.177459 -0.0263923 8.15479e-17)
(0.167947 -0.025093 9.33234e-17)
(0.1587 -0.0238137 1.03914e-16)
(0.149323 -0.0224348 1.14556e-16)
(0.140568 -0.0212609 1.21941e-16)
(0.132135 -0.019803 1.28168e-16)
(0.123615 -0.0185948 1.31763e-16)
(0.115631 -0.0171837 1.3399e-16)
(0.107246 -0.0160436 1.36122e-16)
(0.0995866 -0.0147922 1.35797e-16)
(0.0920688 -0.0138838 1.36483e-16)
(0.086061 -0.0128645 1.33891e-16)
(0.0796871 -0.0119666 1.32022e-16)
(0.0741614 -0.0108624 1.2812e-16)
(0.0681391 -0.00994853 1.25644e-16)
(0.0628705 -0.00895859 1.22046e-16)
(0.0573269 -0.00827356 1.16975e-16)
(0.0525962 -0.00749595 1.11638e-16)
(0.0479945 -0.00674922 1.0541e-16)
(0.0439122 -0.00602786 1.00327e-16)
(0.0398224 -0.00512975 9.36599e-17)
(0.0357615 -0.00397897 8.83295e-17)
(0.0322279 -0.00225699 7.92845e-17)
(0.0281317 -0.000495103 7.13011e-17)
(0.0246436 -0.000340167 6.2325e-17)
(0.0203517 -0.000132624 5.69453e-17)
(0.016719 -0.000275379 5.00213e-17)
(0.0108486 -0.000125774 4.89361e-17)
(0.0075212 -2.75678e-05 4.17721e-17)
(0.00192544 0.000337413 3.8975e-17)
(0.000683209 -0.000378823 3.55798e-17)
(-0.00243842 -0.000915439 3.77417e-17)
(-0.000784271 -0.00152945 3.6536e-17)
(-0.00129967 -0.00185045 3.68702e-17)
(0.00113962 -0.00313099 3.82324e-17)
(0.0018071 -0.00394367 3.92805e-17)
(0.00475526 -0.00626536 4.03763e-17)
(0.00607439 -0.00427611 3.99908e-17)
(0.0102545 -0.00530022 4.12722e-17)
(0.0100001 -0.00710518 4.25358e-17)
(0.0161429 -0.00835243 4.36965e-17)
(0.0149587 -0.011663 4.51138e-17)
(0.0215971 -0.0160185 4.66377e-17)
(0.0238538 -0.0244074 4.93646e-17)
(0.0292359 -0.033955 5.20404e-17)
(0.0164503 -0.0527975 5.37431e-17)
(0.0298897 -0.0316613 5.08653e-17)
(0.0707735 -0.0294049 7.48809e-17)
(0.123664 -0.0129572 2.15886e-17)
(0.216703 0.00106151 1.2639e-16)
(0.290813 0.00634666 1.75833e-17)
(0.422777 0.0125226 1.3852e-16)
(0.536557 0.00919542 5.11172e-17)
(0.619736 0.0152108 1.56438e-16)
(0.630612 0.0155561 7.04093e-17)
(0.667644 0.0167461 1.74506e-16)
(0.74738 0.0190084 8.88196e-17)
(0.801471 0.0234127 1.60381e-16)
(0.809059 0.0282734 8.24664e-17)
(0.811446 0.0246367 9.09941e-17)
(0.810669 0.0239408 4.05275e-17)
(0.816544 0.0165845 7.5158e-17)
(0.823605 0.0207287 7.4895e-17)
(0.832355 0.0176619 -1.26043e-17)
(0.83939 0.0230304 4.82933e-16)
(0.842238 0.0219348 -2.84597e-16)
(0.849969 0.0277229 3.72769e-16)
(0.85275 0.0273526 -1.41718e-16)
(0.857488 0.033574 -1.06953e-16)
(0.858204 0.0319734 5.17805e-17)
(0.857468 0.0379728 -1.09748e-17)
(0.859266 0.0342615 2.93307e-16)
(0.861606 0.0418349 -4.99949e-16)
(0.858225 0.0361099 -1.7935e-16)
(0.865033 0.0421999 -2.75937e-17)
(0.856894 0.0433573 2.04937e-16)
(0.861747 0.0388781 7.02031e-17)
(0.866709 0.0451345 -2.14424e-17)
(0.866713 0.0450521 -5.68854e-17)
(0.861767 0.0387252 2.60179e-17)
(0.856914 0.0434779 1.32268e-16)
(0.865008 0.0422113 5.69527e-17)
(0.858166 0.0361064 1.97993e-17)
(0.861552 0.0419128 -1.35394e-16)
(0.859239 0.0342333 3.83102e-16)
(0.857355 0.0379318 1.70755e-17)
(0.857684 0.0321443 -6.40937e-17)
(0.857441 0.0335507 -2.4797e-16)
(0.852168 0.0274861 -1.97161e-16)
(0.849205 0.0280051 3.44831e-16)
(0.842604 0.022002 -2.72349e-16)
(0.839499 0.0231317 2.83498e-16)
(0.832376 0.0177532 3.51151e-17)
(0.823269 0.0206001 3.49857e-17)
(0.816684 0.0167855 1.01733e-16)
(0.811136 0.0240922 1.63682e-17)
(0.812089 0.024804 8.88427e-17)
(0.811262 0.0280351 7.0259e-17)
(0.813241 0.0234863 1.65318e-16)
(0.798645 0.0202898 7.69819e-17)
(0.764496 0.0177662 1.86702e-16)
(0.697277 0.0143222 6.735e-17)
(0.68454 0.00981088 1.87703e-16)
(0.674734 0.00355368 4.96003e-17)
(0.639792 0.0121436 1.8749e-16)
(0.652361 0.000433495 4.62974e-17)
(0.617015 0.00214072 1.82971e-16)
(0.626571 -0.00239943 5.2286e-17)
(0.602645 -0.00561579 1.74028e-16)
(0.602826 -0.010612 5.86059e-17)
(0.593931 -0.0145162 1.63057e-16)
(0.598676 -0.0190924 6.73831e-17)
(0.581476 -0.0176307 1.52672e-16)
(0.587638 -0.022333 7.70864e-17)
(0.570637 -0.0183178 1.42871e-16)
(0.575892 -0.0223042 8.57769e-17)
(0.561065 -0.0179121 1.34554e-16)
(0.56424 -0.0208039 9.28535e-17)
(0.552097 -0.0165262 1.27876e-16)
(0.554005 -0.0185475 9.85711e-17)
(0.544064 -0.0148869 1.22606e-16)
(0.544599 -0.0161762 1.0289e-16)
(0.536266 -0.0131694 1.18857e-16)
(0.535462 -0.0137641 1.05645e-16)
(0.527984 -0.0111602 1.16687e-16)
(0.527119 -0.0109204 1.07016e-16)
(0.520365 -0.00890572 1.15456e-16)
(0.518937 -0.00841386 1.07884e-16)
(0.51254 -0.00607497 1.14384e-16)
(0.511546 -0.0056153 1.08751e-16)
(0.505243 -0.00392091 1.13352e-16)
(0.502665 -0.00215715 1.09456e-16)
(0.497687 0.00103823 1.12654e-16)
(0.498912 0.00158911 1.09747e-16)
(0.494664 0.00221215 1.12573e-16)
(0.493336 0.00260797 1.09807e-16)
(0.487925 0.00448507 1.1258e-16)
(0.487147 0.00642847 1.0983e-16)
(0.484783 0.00811569 1.12589e-16)
(0.484602 0.0090081 1.10275e-16)
(0.480806 0.0115602 1.12296e-16)
(0.481786 0.0136442 1.1063e-16)
(0.479742 0.015556 1.12202e-16)
(0.479997 0.0174643 1.10554e-16)
(0.477759 0.0201313 1.12243e-16)
(0.479064 0.0217315 1.10342e-16)
(0.477377 0.0238183 1.12076e-16)
(0.478092 0.0257881 1.09765e-16)
(0.477021 0.0280076 1.11661e-16)
(0.477336 0.0296444 1.09047e-16)
(0.476233 0.0319847 1.10439e-16)
(0.477028 0.0337695 1.08284e-16)
(0.476697 0.035442 1.09243e-16)
(0.47806 0.0372848 1.07497e-16)
(0.479388 0.0388052 1.078e-16)
(0.481708 0.0406227 1.06419e-16)
(0.483839 0.0425992 1.06083e-16)
(0.485931 0.044312 1.04457e-16)
(0.487395 0.0460003 1.03935e-16)
(0.490331 0.0476875 1.02159e-16)
(0.492767 0.0497756 1.01118e-16)
(0.495588 0.0524134 9.81762e-17)
(0.4984 0.0543405 9.67295e-17)
(0.502308 0.0558027 9.39064e-17)
(0.506556 0.0575339 9.21564e-17)
(0.509291 0.0598007 8.78638e-17)
(0.512159 0.0619487 8.47723e-17)
(0.515927 0.0637421 8.03066e-17)
(0.521503 0.0660102 7.59012e-17)
(0.527111 0.0683595 7.16154e-17)
(0.531893 0.0704406 6.75399e-17)
(0.538146 0.0721232 6.13205e-17)
(0.544777 0.0741296 5.66775e-17)
(0.551704 0.0763166 5.11217e-17)
(0.558252 0.0777762 4.66147e-17)
(0.566313 0.0794889 4.20139e-17)
(0.574237 0.0813961 3.68958e-17)
(0.582593 0.0831779 3.0901e-17)
(0.592326 0.084599 2.83025e-17)
(0.601793 0.0862506 2.33792e-17)
(0.61101 0.0881399 2.30615e-17)
(0.627869 0.0917296 1.94806e-17)
(0.644899 0.0913389 1.86047e-17)
(0.652509 0.0883149 1.67486e-17)
(0.657657 0.0886817 1.65212e-17)
(0.671481 0.0916577 1.54901e-17)
(0.68583 0.0918992 1.54499e-17)
(0.701958 0.092062 1.48306e-17)
(0.716559 0.091147 1.9736e-17)
(0.732938 0.0902143 1.94627e-17)
(0.747519 0.0885566 2.59004e-17)
(0.76629 0.0875676 2.81427e-17)
(0.782794 0.084313 3.39993e-17)
(0.800796 0.0810602 3.7433e-17)
(0.816069 0.0765399 4.36635e-17)
(0.834434 0.0729743 4.53566e-17)
(0.848498 0.0661567 5.19589e-17)
(0.864318 0.060445 5.20235e-17)
(0.875513 0.0522168 5.72131e-17)
(0.889308 0.0463515 5.70473e-17)
(0.895932 0.0352916 6.05554e-17)
(0.905516 0.0282246 5.95577e-17)
(0.90678 0.0158041 6.14071e-17)
(0.905139 0.00956886 5.95329e-17)
(0.909408 -0.000871421 6.01364e-17)
(0.901319 -0.00910312 5.74143e-17)
(0.902381 -0.0145687 5.69117e-17)
(0.898943 -0.0247125 5.37426e-17)
(0.892825 -0.0301112 5.2847e-17)
(0.888468 -0.0373691 4.9172e-17)
(0.881412 -0.041914 4.82057e-17)
(0.878218 -0.0474998 4.54601e-17)
(0.872366 -0.051644 4.46121e-17)
(0.869074 -0.0579307 4.27968e-17)
(0.863194 -0.0610534 4.29274e-17)
(0.859007 -0.065699 4.16426e-17)