/*--------------------------------*- C++ -*----------------------------------*\
| =========                 |                                                 |
| \\      /  F ield         | OpenFOAM: The Open Source CFD Toolbox           |
|  \\    /   O peration     | Version:  v2006                                 |
|   \\  /    A nd           | Website:  www.openfoam.com                      |
|    \\/     M anipulation  |                                                 |
\*---------------------------------------------------------------------------*/
FoamFile
{
    version     2.0;
    format      ascii;
    class       volScalarField;
    location    "60";
    object      alphat;
}
// * * * * * * * * * * * * * * * * * * * * * * * * * * * * * * * * * * * * * //

dimensions      [1 -1 -1 0 0 0 0];


internalField   nonuniform List<scalar> 
93840
(
2.84399e-08
2.85647e-08
2.83783e-08
2.82526e-08
2.85052e-08
2.8422e-08
2.83944e-08
2.93768e-08
2.85339e-08
2.93757e-08
2.90434e-08
2.99188e-08
2.98392e-08
3.0586e-08
3.15271e-08
3.1663e-08
3.02711e-08
2.89904e-08
2.45581e-08
4.81661e-07
4.34629e-06
1.47277e-05
3.35982e-05
4.52135e-05
3.69703e-05
2.57986e-05
2.1458e-05
1.74062e-05
1.60167e-05
1.51811e-05
1.37559e-05
1.32362e-05
1.30177e-05
1.27537e-05
1.25869e-05
1.2664e-05
1.22923e-05
1.24731e-05
1.20767e-05
1.22575e-05
1.19118e-05
1.20578e-05
1.17504e-05
1.18644e-05
1.16084e-05
1.16949e-05
1.1495e-05
1.15786e-05
1.14339e-05
1.15221e-05
1.14489e-05
1.15572e-05
1.15167e-05
1.16181e-05
1.16478e-05
1.17814e-05
1.1768e-05
1.18202e-05
1.1761e-05
1.17821e-05
1.17466e-05
1.17202e-05
1.16313e-05
1.16113e-05
1.15356e-05
1.14763e-05
1.14053e-05
1.13811e-05
1.13289e-05
1.13272e-05
1.13338e-05
1.13611e-05
1.13731e-05
1.13909e-05
1.13762e-05
1.14069e-05
1.14834e-05
1.16076e-05
1.17058e-05
1.17059e-05
1.16481e-05
1.16646e-05
1.18282e-05
1.20176e-05
1.20104e-05
1.18849e-05
1.19161e-05
1.21497e-05
1.22692e-05
1.21361e-05
1.20936e-05
1.23046e-05
1.24735e-05
1.24049e-05
1.23853e-05
1.26045e-05
1.27392e-05
1.26761e-05
1.27885e-05
1.30103e-05
1.30256e-05
1.30937e-05
1.32978e-05
1.34908e-05
1.36948e-05
1.37967e-05
1.37732e-05
1.39551e-05
1.4144e-05
1.4325e-05
1.44921e-05
1.4702e-05
1.48543e-05
1.50971e-05
1.52709e-05
1.54871e-05
1.56591e-05
1.58935e-05
1.60757e-05
1.62858e-05
1.64461e-05
1.66476e-05
1.67707e-05
1.6927e-05
1.69774e-05
1.70129e-05
1.71095e-05
1.71038e-05
1.71908e-05
1.72223e-05
1.72147e-05
1.72251e-05
1.72529e-05
1.72566e-05
1.73175e-05
1.72992e-05
1.73565e-05
1.73463e-05
1.73885e-05
1.74209e-05
1.74757e-05
1.74808e-05
1.74909e-05
1.75212e-05
1.75545e-05
1.75957e-05
1.76291e-05
1.765e-05
1.76531e-05
1.76617e-05
1.76754e-05
1.76763e-05
1.7664e-05
1.76391e-05
1.76149e-05
1.7564e-05
1.75092e-05
1.74297e-05
1.73469e-05
1.72412e-05
1.716e-05
1.70229e-05
1.68742e-05
1.66943e-05
1.64834e-05
1.62043e-05
1.58363e-05
1.52081e-05
1.4199e-05
1.27026e-05
1.16698e-05
1.22136e-05
1.12379e-05
5.22528e-06
3.71124e-09
7.46e-07
2.44276e-06
1.02277e-06
3.95948e-07
3.16975e-07
1.94579e-07
2.91341e-07
6.61826e-08
3.22781e-07
1.2002e-06
4.1319e-07
3.85844e-10
6.01044e-06
6.41018e-06
1.30401e-07
7.00826e-06
1.4138e-05
1.41179e-05
1.37924e-05
1.54736e-05
1.73264e-05
1.83315e-05
1.85361e-05
1.87776e-05
1.86514e-05
1.86416e-05
1.85577e-05
1.84625e-05
1.83723e-05
1.82929e-05
1.81866e-05
1.81041e-05
1.80124e-05
1.79273e-05
1.78177e-05
1.76945e-05
1.7589e-05
1.74692e-05
1.73464e-05
1.72331e-05
1.71257e-05
1.70133e-05
1.68877e-05
1.6762e-05
1.66337e-05
1.6533e-05
1.64003e-05
1.63054e-05
1.6199e-05
1.60918e-05
1.59725e-05
1.58518e-05
1.57464e-05
1.56603e-05
1.55528e-05
1.5451e-05
1.53406e-05
1.52483e-05
1.51655e-05
1.50998e-05
1.50059e-05
1.49033e-05
1.47983e-05
1.4717e-05
1.4639e-05
1.45693e-05
1.44923e-05
1.44146e-05
1.43671e-05
1.42888e-05
1.42258e-05
1.41579e-05
1.41236e-05
1.39682e-05
1.39353e-05
1.31624e-05
1.16124e-05
1.09993e-05
1.11223e-05
1.145e-05
1.18508e-05
1.20761e-05
1.21784e-05
1.21868e-05
1.21377e-05
1.20557e-05
1.19519e-05
1.18407e-05
1.17294e-05
1.1592e-05
1.14606e-05
1.13243e-05
1.11715e-05
1.08923e-05
1.06009e-05
1.05758e-05
1.04839e-05
1.02532e-05
9.93921e-06
9.81301e-06
9.69106e-06
9.58406e-06
9.34114e-06
9.13424e-06
8.97005e-06
8.82353e-06
8.5998e-06
8.41672e-06
8.268e-06
8.06628e-06
7.83037e-06
7.69133e-06
7.52775e-06
7.3079e-06
7.11799e-06
6.96462e-06
6.78041e-06
6.58308e-06
6.402e-06
6.22613e-06
6.04668e-06
5.86429e-06
5.67593e-06
5.48788e-06
5.29942e-06
5.10946e-06
4.90591e-06
4.7041e-06
4.49663e-06
4.31345e-06
4.13129e-06
3.97837e-06
3.80479e-06
3.65772e-06
3.48822e-06
3.35183e-06
3.17984e-06
3.0595e-06
2.88289e-06
2.77782e-06
2.57999e-06
2.4824e-06
2.26199e-06
2.17704e-06
1.97166e-06
1.89209e-06
1.77166e-06
1.68931e-06
1.6104e-06
1.55739e-06
1.53072e-06
1.51864e-06
1.5197e-06
1.58491e-06
1.6531e-06
1.74084e-06
1.95311e-06
2.05931e-06
2.47003e-06
3.49963e-06
3.11706e-06
8.65768e-06
1.37827e-05
1.90883e-05
2.16878e-05
2.38143e-05
2.52974e-05
2.51931e-05
3.64555e-05
4.61974e-05
3.5955e-05
1.59235e-05
4.46083e-06
7.65762e-07
2.65704e-08
2.18013e-08
2.97378e-08
2.86349e-08
2.9344e-08
3.02386e-08
2.98217e-08
2.97582e-08
2.9013e-08
2.93805e-08
2.85057e-08
2.93438e-08
2.82919e-08
2.84604e-08
2.8406e-08
2.82116e-08
2.82917e-08
2.85016e-08
2.84082e-08
2.84023e-08
2.8507e-08
2.8319e-08
2.8213e-08
2.839e-08
2.84691e-08
2.83171e-08
2.93352e-08
2.84071e-08
2.93201e-08
2.89929e-08
2.97392e-08
2.98245e-08
3.01832e-08
3.01979e-08
3.20828e-08
3.29632e-08
4.04877e-08
9.56291e-08
3.92321e-07
2.90578e-06
1.18598e-05
2.9597e-05
4.23488e-05
3.67397e-05
2.83234e-05
2.523e-05
2.0234e-05
1.74611e-05
1.58535e-05
1.44715e-05
1.39076e-05
1.33751e-05
1.32958e-05
1.31551e-05
1.27846e-05
1.2825e-05
1.22917e-05
1.24416e-05
1.18037e-05
1.2045e-05
1.13609e-05
1.16745e-05
1.10149e-05
1.14318e-05
1.08798e-05
1.14532e-05
1.11266e-05
1.1943e-05
1.19683e-05
1.30626e-05
1.34111e-05
1.46165e-05
1.50555e-05
1.61213e-05
1.649e-05
1.73779e-05
1.7621e-05
1.8252e-05
1.82591e-05
1.85922e-05
1.84506e-05
1.85297e-05
1.82091e-05
1.81577e-05
1.77717e-05
1.76067e-05
1.73069e-05
1.72907e-05
1.72141e-05
1.7422e-05
1.75428e-05
1.76805e-05
1.75942e-05
1.75469e-05
1.76064e-05
1.81415e-05
1.88068e-05
1.92157e-05
1.89765e-05
1.85374e-05
1.86027e-05
1.96143e-05
2.04707e-05
2.00681e-05
1.90518e-05
1.91065e-05
2.04652e-05
2.08997e-05
1.97381e-05
1.90979e-05
2.01221e-05
2.07314e-05
1.9734e-05
1.90992e-05
2.00039e-05
2.02533e-05
1.91792e-05
1.92741e-05
2.0042e-05
1.93132e-05
1.89831e-05
1.95482e-05
1.90919e-05
1.87822e-05
1.92282e-05
1.87835e-05
1.8677e-05
1.86451e-05
1.84671e-05
1.82902e-05
1.83538e-05
1.81109e-05
1.81319e-05
1.79228e-05
1.78543e-05
1.76934e-05
1.75738e-05
1.7409e-05
1.72733e-05
1.70947e-05
1.69455e-05
1.67723e-05
1.66461e-05
1.65008e-05
1.64461e-05
1.62249e-05
1.62674e-05
1.60893e-05
1.60317e-05
1.59459e-05
1.58472e-05
1.57933e-05
1.56657e-05
1.55957e-05
1.54783e-05
1.54387e-05
1.53113e-05
1.52319e-05
1.51021e-05
1.4996e-05
1.48582e-05
1.47527e-05
1.46173e-05
1.44886e-05
1.43371e-05
1.41773e-05
1.39855e-05
1.38058e-05
1.36162e-05
1.34235e-05
1.3189e-05
1.29468e-05
1.26881e-05
1.24017e-05
1.20536e-05
1.16613e-05
1.12076e-05
1.06973e-05
1.01215e-05
9.4162e-06
8.52323e-06
7.5135e-06
6.56953e-06
5.89022e-06
5.33979e-06
4.33877e-06
2.68517e-06
9.12161e-07
2.17715e-07
6.39842e-07
1.35246e-06
9.81028e-07
2.27268e-08
5.65085e-08
8.70724e-08
6.48981e-08
7.67842e-09
4.11641e-08
3.17441e-08
1.66978e-08
6.14293e-08
4.43282e-08
3.52827e-08
3.89707e-09
2.18659e-08
1.25881e-09
9.55424e-09
7.154e-09
1.66037e-08
2.31631e-07
2.10198e-06
1.98921e-06
7.43811e-07
1.27711e-06
3.22763e-06
4.95714e-06
5.4548e-06
5.76102e-06
6.54606e-06
7.87284e-06
9.13799e-06
1.01148e-05
1.09158e-05
1.16414e-05
1.2241e-05
1.27701e-05
1.32029e-05
1.35606e-05
1.38411e-05
1.40474e-05
1.42263e-05
1.43508e-05
1.4469e-05
1.45737e-05
1.46786e-05
1.47688e-05
1.48231e-05
1.48655e-05
1.49109e-05
1.48461e-05
1.48647e-05
1.49217e-05
1.49836e-05
1.50325e-05
1.50907e-05
1.51204e-05
1.5169e-05
1.52222e-05
1.52769e-05
1.52529e-05
1.51684e-05
1.50993e-05
1.5078e-05
1.50626e-05
1.51271e-05
1.51458e-05
1.5208e-05
1.52258e-05
1.52658e-05
1.52578e-05
1.52739e-05
1.52452e-05
1.52633e-05
1.53037e-05
1.52236e-05
1.54559e-05
1.52275e-05
1.56604e-05
1.60554e-05
1.58189e-05
1.81055e-05
1.90003e-05
1.86499e-05
1.93627e-05
2.03976e-05
2.0594e-05
2.03057e-05
1.98563e-05
1.94345e-05
1.90949e-05
1.88366e-05
1.85869e-05
1.84806e-05
1.82671e-05
1.824e-05
1.80589e-05
1.80244e-05
1.78915e-05
1.77919e-05
1.7935e-05
1.77028e-05
1.75253e-05
1.74488e-05
1.7489e-05
1.72144e-05
1.73735e-05
1.72745e-05
1.71808e-05
1.72666e-05
1.74557e-05
1.72371e-05
1.72327e-05
1.74689e-05
1.74563e-05
1.71942e-05
1.74113e-05
1.75353e-05
1.7331e-05
1.72548e-05
1.73891e-05
1.73799e-05
1.72744e-05
1.72321e-05
1.72113e-05
1.71828e-05
1.71059e-05
1.70183e-05
1.68855e-05
1.67868e-05
1.66017e-05
1.64121e-05
1.61235e-05
1.59335e-05
1.57346e-05
1.5689e-05
1.55716e-05
1.55591e-05
1.53956e-05
1.53457e-05
1.51265e-05
1.50674e-05
1.48383e-05
1.47927e-05
1.45431e-05
1.44762e-05
1.41856e-05
1.40796e-05
1.37714e-05
1.36231e-05
1.32511e-05
1.29817e-05
1.25101e-05
1.21368e-05
1.17276e-05
1.14989e-05
1.12728e-05
1.1233e-05
1.1283e-05
1.15385e-05
1.16303e-05
1.2201e-05
1.22162e-05
1.34002e-05
1.43023e-05
1.62168e-05
2.15237e-05
2.56296e-05
3.19722e-05
3.63465e-05
3.98947e-05
4.09867e-05
3.67875e-05
4.08553e-05
4.68476e-05
3.74634e-05
1.77399e-05
4.90563e-06
8.36186e-07
1.18292e-07
2.83855e-08
2.66975e-08
3.14873e-08
3.08247e-08
3.02581e-08
2.98009e-08
2.98368e-08
2.90266e-08
2.93937e-08
2.85755e-08
2.93865e-08
2.83509e-08
2.84456e-08
2.84834e-08
2.82437e-08
2.84137e-08
2.85756e-08
2.84414e-08
2.84374e-08
2.85539e-08
2.83998e-08
2.82211e-08
2.84734e-08
2.84542e-08
2.83415e-08
2.93911e-08
2.85591e-08
2.94161e-08
2.90412e-08
2.97991e-08
2.97663e-08
3.01882e-08
2.97034e-08
3.06578e-08
3.42684e-08
2.98772e-08
2.52751e-08
6.86419e-08
1.50416e-06
8.20513e-06
2.34993e-05
3.63757e-05
3.23327e-05
2.55975e-05
2.46549e-05
2.15738e-05
1.97211e-05
1.85528e-05
1.72272e-05
1.68183e-05
1.5915e-05
1.56696e-05
1.49585e-05
1.46238e-05
1.39972e-05
1.35811e-05
1.30499e-05
1.25908e-05
1.22053e-05
1.17854e-05
1.16254e-05
1.1383e-05
1.16201e-05
1.17677e-05
1.26076e-05
1.33545e-05
1.48865e-05
1.62074e-05
1.81832e-05
1.97388e-05
2.17544e-05
2.32713e-05
2.51925e-05
2.66112e-05
2.83499e-05
2.94038e-05
3.05659e-05
3.09259e-05
3.13582e-05
3.10796e-05
3.08457e-05
3.00541e-05
2.94525e-05
2.84495e-05
2.77914e-05
2.71274e-05
2.70511e-05
2.70913e-05
2.76313e-05
2.7965e-05
2.80987e-05
2.77583e-05
2.7605e-05
2.80564e-05
2.9681e-05
3.1383e-05
3.20052e-05
3.09337e-05
2.97243e-05
3.03861e-05
3.33738e-05
3.52384e-05
3.3352e-05
3.03444e-05
3.10001e-05
3.47662e-05
3.52191e-05
3.13436e-05
2.98245e-05
3.2754e-05
3.37882e-05
3.04846e-05
2.89494e-05
3.13197e-05
3.13312e-05
2.82273e-05
2.86391e-05
3.01655e-05
2.78688e-05
2.70881e-05
2.82468e-05
2.67766e-05
2.59976e-05
2.67761e-05
2.53863e-05
2.50371e-05
2.47403e-05
2.4085e-05
2.35201e-05
2.34559e-05
2.2686e-05
2.25781e-05
2.19049e-05
2.15892e-05
2.10521e-05
2.0637e-05
2.01364e-05
1.97039e-05
1.92265e-05
1.88163e-05
1.83909e-05
1.80463e-05
1.77216e-05
1.74702e-05
1.70567e-05
1.69688e-05
1.65464e-05
1.63675e-05
1.60742e-05
1.58039e-05
1.55569e-05
1.52225e-05
1.49629e-05
1.46408e-05
1.43965e-05
1.40558e-05
1.37331e-05
1.33667e-05
1.29987e-05
1.26159e-05
1.22419e-05
1.18263e-05
1.1394e-05
1.09316e-05
1.04363e-05
9.89868e-06
9.34023e-06
8.74747e-06
8.10145e-06
7.38829e-06
6.61453e-06
5.85432e-06
5.08453e-06
4.35927e-06
3.60846e-06
2.85887e-06
2.13382e-06
1.62814e-06
1.25893e-06
8.55463e-07
3.01988e-07
7.86404e-08
9.07881e-08
1.09604e-07
2.56413e-08
2.25742e-08
9.8637e-08
1.05261e-07
2.29449e-08
3.33783e-08
7.07403e-08
9.1551e-08
5.6346e-08
4.02663e-08
2.50017e-08
8.68841e-08
6.67895e-08
1.08302e-07
1.18729e-07
1.23571e-07
6.29777e-08
5.14741e-08
8.56071e-08
1.00915e-07
6.71807e-08
5.29512e-08
4.59424e-08
6.01092e-08
2.3179e-08
3.53698e-08
4.85995e-08
3.46802e-08
7.93168e-09
4.87877e-08
3.03754e-07
2.16658e-07
7.03552e-08
2.16059e-07
7.01652e-07
1.17536e-06
1.57231e-06
2.11559e-06
2.73999e-06
3.37251e-06
4.06653e-06
4.84194e-06
5.59673e-06
6.37866e-06
7.14368e-06
7.93583e-06
8.69415e-06
9.43676e-06
1.00977e-05
1.07047e-05
1.12124e-05
1.16914e-05
1.20714e-05
1.24683e-05
1.26969e-05
1.29909e-05
1.32809e-05
1.35988e-05
1.38715e-05
1.41794e-05
1.44284e-05
1.47192e-05
1.49758e-05
1.52629e-05
1.54337e-05
1.55725e-05
1.56429e-05
1.58212e-05
1.59204e-05
1.61845e-05
1.6344e-05
1.6603e-05
1.67529e-05
1.69974e-05
1.71109e-05
1.73078e-05
1.73681e-05
1.75691e-05
1.77529e-05
1.77307e-05
1.82237e-05
1.80483e-05
1.84828e-05
1.95446e-05
1.87642e-05
2.28714e-05
2.45353e-05
2.42262e-05
2.58385e-05
2.83512e-05
2.93891e-05
2.93449e-05
2.88045e-05
2.82192e-05
2.77114e-05
2.73704e-05
2.69814e-05
2.6954e-05
2.66283e-05
2.67376e-05
2.64841e-05
2.65905e-05
2.65272e-05
2.63624e-05
2.68585e-05
2.66186e-05
2.64567e-05
2.64176e-05
2.67288e-05
2.62388e-05
2.68549e-05
2.69454e-05
2.68968e-05
2.72428e-05
2.80412e-05
2.78159e-05
2.7936e-05
2.88111e-05
2.921e-05
2.87387e-05
2.94889e-05
3.02358e-05
3.00523e-05
3.00524e-05
3.07093e-05
3.10619e-05
3.10902e-05
3.12254e-05
3.1465e-05
3.16804e-05
3.17737e-05
3.17809e-05
3.16855e-05
3.16054e-05
3.13614e-05
3.10058e-05
3.04578e-05
3.0017e-05
2.96609e-05
2.95793e-05
2.95031e-05
2.95323e-05
2.93812e-05
2.92751e-05
2.89746e-05
2.87877e-05
2.84535e-05
2.82641e-05
2.79069e-05
2.76615e-05
2.72075e-05
2.68601e-05
2.63161e-05
2.58755e-05
2.52031e-05
2.45758e-05
2.37025e-05
2.29086e-05
2.20359e-05
2.14061e-05
2.08761e-05
2.07055e-05
2.0724e-05
2.1105e-05
2.15953e-05
2.24263e-05
2.33178e-05
2.4652e-05
2.62753e-05
2.7564e-05
2.73018e-05
3.02656e-05
3.81092e-05
4.5137e-05
5.05018e-05
5.47858e-05
5.32983e-05
5.29427e-05
5.05936e-05
3.6829e-05
1.972e-05
6.1257e-06
1.01351e-06
1.57359e-07
8.33762e-08
3.84798e-08
3.10556e-08
3.07287e-08
3.05483e-08
2.99524e-08
2.98902e-08
2.90484e-08
2.93519e-08
2.84382e-08
2.93078e-08
2.82712e-08
2.84786e-08
2.84266e-08
2.82106e-08
2.82789e-08
2.84809e-08
2.83788e-08
2.83982e-08
2.84592e-08
2.82989e-08
2.82062e-08
2.83904e-08
2.84455e-08
2.83294e-08
2.93619e-08
2.84748e-08
2.93084e-08
2.9001e-08
2.97822e-08
2.9757e-08
3.02067e-08
2.91648e-08
2.65473e-08
2.73578e-08
2.99891e-08
1.03329e-08
2.63339e-08
9.70581e-07
5.3959e-06
1.70093e-05
2.9356e-05
2.70064e-05
2.09622e-05
2.07867e-05
1.83159e-05
1.74301e-05
1.66571e-05
1.58437e-05
1.53969e-05
1.46639e-05
1.42456e-05
1.34642e-05
1.30271e-05
1.2235e-05
1.17969e-05
1.11083e-05
1.07486e-05
1.03179e-05
1.02053e-05
1.02404e-05
1.06441e-05
1.1412e-05
1.25496e-05
1.41256e-05
1.59166e-05
1.80286e-05
2.01308e-05
2.24492e-05
2.46487e-05
2.70585e-05
2.93185e-05
3.17774e-05
3.39157e-05
3.60965e-05
3.76216e-05
3.89459e-05
3.9431e-05
3.96882e-05
3.91879e-05
3.85358e-05
3.73069e-05
3.61649e-05
3.47873e-05
3.38434e-05
3.31572e-05
3.32796e-05
3.3669e-05
3.45118e-05
3.49009e-05
3.48282e-05
3.42933e-05
3.43058e-05
3.5498e-05
3.80878e-05
4.02129e-05
4.03925e-05
3.85269e-05
3.72026e-05
3.90151e-05
4.34436e-05
4.51663e-05
4.15887e-05
3.75307e-05
3.94066e-05
4.47617e-05
4.42764e-05
3.82216e-05
3.67208e-05
4.12475e-05
4.18683e-05
3.65997e-05
3.49059e-05
3.84504e-05
3.7689e-05
3.31259e-05
3.41564e-05
3.59353e-05
3.22567e-05
3.14439e-05
3.29685e-05
3.0534e-05
2.95022e-05
3.04208e-05
2.82627e-05
2.78417e-05
2.72932e-05
2.62445e-05
2.54261e-05
2.52422e-05
2.4077e-05
2.39001e-05
2.28604e-05
2.23885e-05
2.15731e-05
2.09655e-05
2.02235e-05
1.9592e-05
1.89104e-05
1.8326e-05
1.77143e-05
1.72081e-05
1.67317e-05
1.63149e-05
1.57632e-05
1.55098e-05
1.49514e-05
1.46088e-05
1.41482e-05
1.37256e-05
1.32804e-05
1.27838e-05
1.23271e-05
1.18259e-05
1.13858e-05
1.08648e-05
1.03173e-05
9.73654e-06
9.11179e-06
8.47233e-06
7.79913e-06
7.06777e-06
6.28237e-06
5.47645e-06
4.66564e-06
3.88467e-06
3.15349e-06
2.49397e-06
1.8908e-06
1.34903e-06
7.85751e-07
4.20023e-07
2.10446e-07
1.42603e-07
7.52319e-08
5.49742e-08
4.15629e-08
4.64805e-08
3.5221e-08
3.37597e-08
2.92309e-08
2.97423e-08
2.63768e-08
3.36758e-08
3.36976e-08
4.21282e-08
2.21614e-08
3.60761e-08
4.28157e-08
4.70593e-08
2.01109e-08
3.81496e-08
4.87463e-08
8.31543e-08
8.65725e-08
9.13318e-08
5.42975e-08
3.22042e-08
2.98514e-08
6.09685e-08
4.35925e-08
5.15703e-08
3.20502e-08
1.73733e-08
1.90648e-08
1.79659e-08
1.15453e-08
1.51728e-08
9.68043e-09
1.0739e-08
7.88726e-09
1.06519e-08
4.65968e-09
8.18353e-09
9.78823e-09
1.20226e-08
5.94288e-09
1.2968e-08
1.39441e-08
2.12827e-08
1.53978e-08
3.45286e-08
3.9682e-08
7.97028e-08
1.21245e-07
2.85452e-07
4.38193e-07
7.47963e-07
1.08158e-06
1.53532e-06
2.0244e-06
2.68649e-06
3.32777e-06
4.02964e-06
4.69601e-06
5.48436e-06
6.1994e-06
6.98444e-06
7.62534e-06
8.28531e-06
8.90425e-06
9.55617e-06
1.01163e-05
1.07098e-05
1.1215e-05
1.17534e-05
1.22282e-05
1.27342e-05
1.3126e-05
1.35024e-05
1.37735e-05
1.41791e-05
1.44612e-05
1.49089e-05
1.52277e-05
1.56549e-05
1.59563e-05
1.63571e-05
1.66048e-05
1.69593e-05
1.71521e-05
1.7506e-05
1.78431e-05
1.79122e-05
1.85406e-05
1.86016e-05
1.88368e-05
2.05747e-05
1.9955e-05
2.44778e-05
2.65573e-05
2.62114e-05
2.82306e-05
3.16081e-05
3.32712e-05
3.35516e-05
3.31188e-05
3.25944e-05
3.20795e-05
3.18077e-05
3.13774e-05
3.15052e-05
3.11556e-05
3.14187e-05
3.11586e-05
3.13949e-05
3.15304e-05
3.12865e-05
3.19843e-05
3.18031e-05
3.17336e-05
3.17284e-05
3.23099e-05
3.15993e-05
3.25083e-05
3.29107e-05
3.29478e-05
3.33755e-05
3.47186e-05
3.466e-05
3.47681e-05
3.60657e-05
3.70355e-05
3.64591e-05
3.74335e-05
3.87963e-05
3.88534e-05
3.8865e-05
3.98833e-05
4.06681e-05
4.09413e-05
4.1261e-05
4.17509e-05
4.22453e-05
4.25888e-05
4.27815e-05
4.2814e-05
4.28302e-05
4.26471e-05
4.2269e-05
4.16174e-05
4.10113e-05
4.05248e-05
4.03746e-05
4.03306e-05
4.0413e-05
4.03422e-05
4.02497e-05
3.99607e-05
3.97019e-05
3.93249e-05
3.90206e-05
3.8606e-05
3.82255e-05
3.76995e-05
3.71845e-05
3.65407e-05
3.58964e-05
3.51082e-05
3.42728e-05
3.32706e-05
3.22404e-05
3.1148e-05
3.01484e-05
2.92809e-05
2.86305e-05
2.83022e-05
2.8319e-05
2.86851e-05
2.94525e-05
3.0489e-05
3.19325e-05
3.37657e-05
3.5669e-05
3.69622e-05
3.82055e-05
4.18305e-05
4.85075e-05
5.50561e-05
6.19995e-05
6.37012e-05
6.36636e-05
5.65027e-05
3.58777e-05
1.74478e-05
6.88953e-06
1.36176e-06
1.11337e-08
1.90936e-08
3.74013e-08
3.14725e-08
2.98076e-08
3.0166e-08
2.98042e-08
2.9903e-08
2.90652e-08
2.93455e-08
2.85378e-08
2.93651e-08
2.83427e-08
2.84285e-08
2.84699e-08
2.8223e-08
2.8378e-08
2.85672e-08
2.84601e-08
2.84378e-08
2.86333e-08
2.83831e-08
2.82923e-08
2.84852e-08
2.84285e-08
2.83345e-08
2.93899e-08
2.84325e-08
2.94403e-08
2.90373e-08
2.99277e-08
2.98736e-08
3.06384e-08
3.16794e-08
3.19582e-08
2.82927e-08
3.69519e-08
5.82295e-08
2.50515e-08
8.55622e-08
2.3029e-06
1.01587e-05
2.06908e-05
2.00585e-05
1.46889e-05
1.50362e-05
1.33974e-05
1.26802e-05
1.23774e-05
1.16009e-05
1.14361e-05
1.05521e-05
1.0324e-05
9.40674e-06
9.15006e-06
8.31843e-06
8.16277e-06
7.63492e-06
7.80792e-06
7.86984e-06
8.64237e-06
9.51291e-06
1.09932e-05
1.25938e-05
1.45658e-05
1.65691e-05
1.87704e-05
2.10002e-05
2.34172e-05
2.59421e-05
2.86504e-05
3.14539e-05
3.43259e-05
3.71942e-05
3.98159e-05
4.21837e-05
4.3917e-05
4.51533e-05
4.55621e-05
4.54788e-05
4.46586e-05
4.35039e-05
4.18567e-05
4.02488e-05
3.86902e-05
3.76942e-05
3.73126e-05
3.78938e-05
3.87535e-05
3.97873e-05
4.00193e-05
3.96136e-05
3.90525e-05
3.95821e-05
4.18025e-05
4.51406e-05
4.71099e-05
4.64239e-05
4.39504e-05
4.31281e-05
4.64666e-05
5.17553e-05
5.24444e-05
4.71203e-05
4.27847e-05
4.6345e-05
5.25993e-05
5.04251e-05
4.25526e-05
4.17574e-05
4.76686e-05
4.71752e-05
4.00868e-05
3.87927e-05
4.33225e-05
4.13027e-05
3.56071e-05
3.75218e-05
3.91503e-05
3.41043e-05
3.35747e-05
3.52651e-05
3.17865e-05
3.06874e-05
3.16345e-05
2.8739e-05
2.83582e-05
2.75291e-05
2.61133e-05
2.51198e-05
2.48055e-05
2.33022e-05
2.30944e-05
2.17224e-05
2.115e-05
2.00943e-05
1.93418e-05
1.84009e-05
1.76056e-05
1.67636e-05
1.60218e-05
1.52577e-05
1.45918e-05
1.39835e-05
1.34052e-05
1.2741e-05
1.22988e-05
1.16108e-05
1.10784e-05
1.04605e-05
9.85942e-06
9.2072e-06
8.51548e-06
7.79574e-06
7.07826e-06
6.36098e-06
5.65294e-06
4.84164e-06
4.11115e-06
3.32392e-06
2.70773e-06
2.09161e-06
1.5718e-06
9.89638e-07
5.92026e-07
2.87812e-07
1.74941e-07
7.42042e-08
5.53697e-08
4.68245e-08
5.40135e-08
2.80876e-08
5.49728e-08
3.2559e-08
4.4633e-08
3.37173e-08
3.93949e-08
3.08759e-08
4.06609e-08
3.26268e-08
4.86287e-08
4.15875e-08
5.88778e-08
4.74478e-08
6.51388e-08
4.36012e-08
6.87058e-08
4.35618e-08
6.99156e-08
4.01686e-08
7.77306e-08
6.75181e-08
7.85063e-08
3.8345e-08
3.97392e-08
3.08696e-08
2.79891e-08
6.09358e-08
1.11737e-07
8.73595e-08
8.89905e-08
5.72379e-08
6.69539e-08
7.80789e-08
5.45055e-08
5.85711e-08
4.1572e-08
4.0689e-08
3.29582e-08
2.929e-08
2.3189e-08
2.22255e-08
1.81568e-08
1.56962e-08
1.26999e-08
1.22556e-08
1.03532e-08
8.76769e-09
8.37766e-09
7.63174e-09
8.36105e-09
7.70933e-09
7.98436e-09
8.80921e-09
7.032e-09
1.02732e-08
8.79686e-09
1.15222e-08
1.4828e-08
1.48094e-08
2.38492e-08
2.91403e-08
5.8313e-08
1.19068e-07
2.37291e-07
3.34726e-07
6.61185e-07
9.47619e-07
1.39979e-06
1.78642e-06
2.26855e-06
2.76703e-06
3.39267e-06
4.00357e-06
4.73168e-06
5.4509e-06
6.25288e-06
7.01027e-06
7.80608e-06
8.50216e-06
9.21713e-06
9.77896e-06
1.04557e-05
1.09822e-05
1.16341e-05
1.21697e-05
1.27663e-05
1.32669e-05
1.38121e-05
1.42394e-05
1.47371e-05
1.50922e-05
1.55753e-05
1.6131e-05
1.6296e-05
1.70671e-05
1.73838e-05
1.74688e-05
1.97089e-05
1.93578e-05
2.40568e-05
2.62466e-05
2.60484e-05
2.82861e-05
3.21408e-05
3.42086e-05
3.47909e-05
3.45292e-05
3.41899e-05
3.37558e-05
3.36704e-05
3.32598e-05
3.36215e-05
3.33169e-05
3.37761e-05
3.35705e-05
3.39226e-05
3.43656e-05
3.40658e-05
3.49149e-05
3.48381e-05
3.48919e-05
3.49004e-05
3.58359e-05
3.49169e-05
3.5979e-05
3.67841e-05
3.70043e-05
3.73901e-05
3.92448e-05
3.95419e-05
3.95764e-05
4.11089e-05
4.2811e-05
4.22807e-05
4.32581e-05
4.52124e-05
4.57295e-05
4.5761e-05
4.70079e-05
4.82631e-05
4.88945e-05
4.94357e-05
5.01661e-05
5.09552e-05
5.16003e-05
5.20536e-05
5.22847e-05
5.24549e-05
5.2408e-05
5.21191e-05
5.14839e-05
5.07998e-05
5.02011e-05
4.9952e-05
4.98889e-05
5.00034e-05
5.00134e-05
4.99791e-05
4.974e-05
4.94668e-05
4.90669e-05
4.86878e-05
4.8216e-05
4.77416e-05
4.71531e-05
4.65341e-05
4.58201e-05
4.50578e-05
4.42024e-05
4.32668e-05
4.22132e-05
4.10782e-05
3.98849e-05
3.86667e-05
3.75591e-05
3.65043e-05
3.57355e-05
3.52335e-05
3.51328e-05
3.54327e-05
3.62349e-05
3.74326e-05
3.9157e-05
4.11372e-05
4.31541e-05
4.52883e-05
4.79212e-05
5.08545e-05
5.71237e-05
6.49638e-05
6.88973e-05
7.12805e-05
6.42775e-05
4.22513e-05
1.38906e-05
4.95848e-06
1.70955e-06
9.73174e-08
6.32731e-09
1.85067e-08
3.10587e-08
3.10143e-08
3.04409e-08
2.99357e-08
2.98778e-08
2.90231e-08
2.93943e-08
2.84835e-08
2.9285e-08
2.82882e-08
2.84459e-08
2.84213e-08
2.81932e-08
2.82952e-08
2.84799e-08
2.83317e-08
2.84128e-08
2.84629e-08
2.83232e-08
2.81676e-08
2.83517e-08
2.84582e-08
2.82761e-08
2.9386e-08
2.84609e-08
2.93505e-08
2.90659e-08
2.979e-08
2.9756e-08
3.01182e-08
3.03948e-08
3.28232e-08
3.18875e-08
2.49094e-08
6.34468e-08
1.99213e-07
9.04818e-08
3.46413e-07
3.81653e-06
1.10487e-05
1.20164e-05
7.52785e-06
7.88829e-06
6.7881e-06
6.26352e-06
6.14017e-06
5.59659e-06
5.58467e-06
4.97024e-06
5.00286e-06
4.49436e-06
4.7555e-06
4.62395e-06
5.32526e-06
5.79315e-06
7.02019e-06
8.0823e-06
9.66997e-06
1.10985e-05
1.28446e-05
1.44699e-05
1.63799e-05
1.82742e-05
2.05702e-05
2.28988e-05
2.57113e-05
2.8534e-05
3.17649e-05
3.48801e-05
3.82011e-05
4.12576e-05
4.4114e-05
4.64096e-05
4.81319e-05
4.90619e-05
4.92414e-05
4.86914e-05
4.74926e-05
4.58249e-05
4.38452e-05
4.19309e-05
4.04674e-05
3.97525e-05
4.00041e-05
4.12362e-05
4.24994e-05
4.34826e-05
4.33276e-05
4.26268e-05
4.23484e-05
4.37761e-05
4.7103e-05
5.07256e-05
5.1969e-05
5.02547e-05
4.75748e-05
4.78505e-05
5.27579e-05
5.81128e-05
5.71159e-05
5.02896e-05
4.64723e-05
5.19029e-05
5.8222e-05
5.38502e-05
4.46912e-05
4.51881e-05
5.2089e-05
4.98846e-05
4.1271e-05
4.08812e-05
4.6086e-05
4.24151e-05
3.59919e-05
3.89629e-05
4.00315e-05
3.37232e-05
3.37525e-05
3.53749e-05
3.08306e-05
2.98627e-05
3.07251e-05
2.7144e-05
2.6914e-05
2.57825e-05
2.40461e-05
2.29582e-05
2.25082e-05
2.07359e-05
2.05346e-05
1.88748e-05
1.82535e-05
1.69881e-05
1.61363e-05
1.50246e-05
1.40912e-05
1.3112e-05
1.22329e-05
1.13313e-05
1.0511e-05
9.77296e-06
9.00384e-06
8.2068e-06
7.51093e-06
6.67436e-06
5.88345e-06
5.09985e-06
4.32435e-06
3.56404e-06
2.84643e-06
2.19363e-06
1.64656e-06
1.17063e-06
8.59784e-07
3.80211e-07
2.72404e-07
8.70482e-08
9.77894e-08
3.21194e-08
6.1001e-08
2.10784e-08
4.42486e-08
2.22791e-08
4.5566e-08
2.89175e-08
3.60956e-08
3.07239e-08
3.25894e-08
2.52095e-08
3.7045e-08
2.49055e-08
3.68689e-08
2.984e-08
3.85719e-08
3.56305e-08
4.23492e-08
3.51065e-08
4.08769e-08
3.03805e-08
3.74024e-08
2.52619e-08
3.55789e-08
2.49778e-08
3.84413e-08
2.93691e-08
4.40223e-08
3.38722e-08
3.71129e-08
2.82129e-08
3.73145e-08
5.72719e-08
6.69781e-08
8.39813e-08
8.83371e-08
5.52739e-08
2.97581e-08
3.63078e-08
6.0152e-08
3.98021e-08
4.39844e-08
3.20912e-08
3.13375e-08
3.23572e-08
1.89161e-08
2.27125e-08
1.51954e-08
1.72107e-08
1.13419e-08
1.30091e-08
9.98272e-09
1.15751e-08
9.33086e-09
1.13907e-08
9.66873e-09
1.2135e-08
9.91108e-09
1.21968e-08
9.2127e-09
1.28577e-08
8.7053e-09
1.42026e-08
8.39819e-09
1.39812e-08
8.20483e-09
1.23729e-08
7.95031e-09
1.22802e-08
7.06156e-09
1.24565e-08
6.21737e-09
8.27011e-09
9.03073e-09
6.7466e-09
1.25019e-08
1.50198e-08
1.71738e-08
3.0156e-08
4.52077e-08
6.86879e-08
1.26415e-07
2.49878e-07
4.2347e-07
6.84893e-07
1.10546e-06
1.56335e-06
2.07468e-06
2.59603e-06
3.2724e-06
3.90691e-06
4.72467e-06
5.50529e-06
6.37936e-06
7.24091e-06
8.05784e-06
8.86409e-06
9.58698e-06
1.02731e-05
1.08807e-05
1.14889e-05
1.207e-05
1.28806e-05
1.3171e-05
1.40487e-05
1.4684e-05
1.46431e-05
1.71833e-05
1.73456e-05
2.19542e-05
2.39979e-05
2.4082e-05
2.65363e-05
3.05762e-05
3.27755e-05
3.35309e-05
3.33943e-05
3.3305e-05
3.29905e-05
3.31855e-05
3.28434e-05
3.35019e-05
3.33113e-05
3.39979e-05
3.39215e-05
3.4369e-05
3.52056e-05
3.49002e-05
3.5858e-05
3.59368e-05
3.61576e-05
3.61166e-05
3.74832e-05
3.64283e-05
3.74825e-05
3.87248e-05
3.92662e-05
3.95059e-05
4.17752e-05
4.26193e-05
4.26026e-05
4.41346e-05
4.66371e-05
4.63928e-05
4.71951e-05
4.96027e-05
5.07763e-05
5.09179e-05
5.22542e-05
5.39489e-05
5.50352e-05
5.58573e-05
5.68224e-05
5.78978e-05
5.887e-05
5.96413e-05
6.01366e-05
6.05183e-05
6.06679e-05
6.05582e-05
6.00543e-05
5.94001e-05
5.87497e-05
5.84015e-05
5.82808e-05
5.83877e-05
5.84593e-05
5.84948e-05
5.83373e-05
5.80945e-05
5.77076e-05
5.72867e-05
5.67781e-05
5.62315e-05
5.55954e-05
5.49025e-05
5.41423e-05
5.33084e-05
5.24253e-05
5.14327e-05
5.03759e-05
4.91946e-05
4.79815e-05
4.66619e-05
4.54191e-05
4.4133e-05
4.3066e-05
4.20609e-05
4.14548e-05
4.10737e-05
4.12801e-05
4.19236e-05
4.32352e-05
4.48596e-05
4.7081e-05
4.94294e-05
5.20848e-05
5.45737e-05
5.80938e-05
6.42315e-05
6.8737e-05
7.37673e-05
7.26704e-05
5.60314e-05
2.12317e-05
3.30247e-06
5.91809e-07
3.94645e-07
1.23662e-07
3.29766e-08
2.78385e-08
2.98636e-08
3.03217e-08
2.98051e-08
2.99817e-08
2.90421e-08
2.93473e-08
2.86072e-08
2.93431e-08
2.83566e-08
2.8416e-08
2.84525e-08
2.82147e-08
2.83777e-08
2.85748e-08
2.84507e-08
2.84393e-08
2.85677e-08
2.83926e-08
2.82981e-08
2.84773e-08
2.8435e-08
2.83151e-08
2.93884e-08
2.85352e-08
2.93599e-08
2.89809e-08
2.98137e-08
2.97162e-08
3.02546e-08
2.99755e-08
3.04848e-08
3.52127e-08
3.78808e-08
1.19202e-08
5.83236e-10
8.77034e-10
1.03556e-11
2.22985e-08
2.7158e-06
4.13973e-06
1.29392e-06
1.3849e-06
8.54205e-07
2.89863e-07
6.51605e-07
5.45067e-07
1.4671e-06
1.60419e-06
2.64391e-06
3.10099e-06
4.22488e-06
4.99646e-06
6.12929e-06
7.00144e-06
8.20061e-06
9.1092e-06
1.04123e-05
1.15668e-05
1.31153e-05
1.46702e-05
1.66591e-05
1.87079e-05
2.13374e-05
2.39198e-05
2.72044e-05
3.02971e-05
3.39191e-05
3.71758e-05
4.07309e-05
4.37476e-05
4.66098e-05
4.86098e-05
5.01403e-05
5.06106e-05
5.04188e-05
4.93456e-05
4.77375e-05
4.56154e-05
4.34503e-05
4.15025e-05
4.04689e-05
4.04229e-05
4.15796e-05
4.34725e-05
4.48649e-05
4.54791e-05
4.48252e-05
4.40497e-05
4.44839e-05
4.71014e-05
5.1332e-05
5.4617e-05
5.4715e-05
5.20717e-05
4.97293e-05
5.15581e-05
5.77414e-05
6.23218e-05
5.92742e-05
5.14067e-05
4.88267e-05
5.60225e-05
6.15524e-05
5.47261e-05
4.49101e-05
4.71378e-05
5.4495e-05
5.01105e-05
4.03854e-05
4.13181e-05
4.6786e-05
4.11899e-05
3.45012e-05
3.85967e-05
3.87093e-05
3.13212e-05
3.21386e-05
3.34359e-05
2.7878e-05
2.72436e-05
2.7905e-05
2.37262e-05
2.37551e-05
2.23006e-05
2.0315e-05
1.92124e-05
1.86239e-05
1.66632e-05
1.65024e-05
1.46016e-05
1.39706e-05
1.25194e-05
1.15878e-05
1.03119e-05
9.20341e-06
8.04427e-06
6.94237e-06
5.87955e-06
4.88245e-06
4.13175e-06
3.2716e-06
2.68192e-06
1.98108e-06
1.54126e-06
8.40154e-07
7.08299e-07
2.40721e-07
2.39149e-07
3.86806e-08
1.59357e-07
7.81691e-09
1.19487e-07
1.60195e-08
6.22916e-08
2.25566e-08
5.26976e-08
2.13821e-08
5.49006e-08
2.02631e-08
5.69366e-08
1.89777e-08
5.36583e-08
1.72158e-08
4.83389e-08
1.83537e-08
5.09281e-08
2.50126e-08
4.94953e-08
2.92915e-08
4.4916e-08
3.23571e-08
4.20412e-08
3.17581e-08
3.71253e-08
3.1032e-08
3.70125e-08
3.57098e-08
4.14025e-08
4.12311e-08
4.73083e-08
4.89258e-08
5.39123e-08
4.92303e-08
5.06777e-08
4.47658e-08
5.31123e-08
5.40253e-08
6.74751e-08
5.59234e-08
4.67754e-08
3.728e-08
3.43851e-08
3.9469e-08
5.68487e-08
9.76093e-08
7.5241e-08
8.30132e-08
6.32331e-08
7.70103e-08
6.79259e-08
6.23158e-08
5.06003e-08
3.74581e-08
3.76686e-08
2.74516e-08
2.86528e-08
1.96015e-08
1.96951e-08
1.42204e-08
1.43746e-08
1.00304e-08
1.12849e-08
7.50691e-09
9.8799e-09
6.61468e-09
1.00216e-08
5.9202e-09
1.04367e-08
5.13171e-09
1.1152e-08
4.66636e-09
1.32396e-08
4.81193e-09
1.55945e-08
5.09535e-09
1.68341e-08
5.7384e-09
1.7355e-08
9.38563e-09
1.52078e-08
1.41444e-08
1.19982e-08
1.18621e-08
1.62503e-08
7.9048e-09
1.99272e-08
6.77991e-09
2.06919e-08
7.15005e-09
2.18832e-08
1.28757e-08
2.11834e-08
1.67863e-08
4.0929e-08
3.37524e-08
7.1854e-08
1.27487e-07
2.97205e-07
4.69214e-07
9.40503e-07
1.31391e-06
1.98415e-06
2.50813e-06
3.34996e-06
4.00481e-06
4.85542e-06
5.52724e-06
6.42345e-06