/*--------------------------------*- C++ -*----------------------------------*\
| =========                 |                                                 |
| \\      /  F ield         | OpenFOAM: The Open Source CFD Toolbox           |
|  \\    /   O peration     | Version:  v2006                                 |
|   \\  /    A nd           | Website:  www.openfoam.com                      |
|    \\/     M anipulation  |                                                 |
\*---------------------------------------------------------------------------*/
FoamFile
{
    version     2.0;
    format      ascii;
    class       volScalarField;
    location    "60";
    object      ducSensor;
}
// * * * * * * * * * * * * * * * * * * * * * * * * * * * * * * * * * * * * * //

dimensions      [0 0 0 0 0 0 0];


internalField   nonuniform List<scalar> 
93840
(
0.0278045
0
0
0
0
0.0197993
0
0
0
0.00229275
0
0
0.00470576
0.0432635
0.0206402
0.0501708
0
0
0.0648404
0
0
0
0
0
0
0.0304039
0
0
0
0.00312389
0
0.0253034
0.00185043
0
0
0
0
0
0
0
0
0
0
0
0
0
0
0
0
0
0
0
0
0
0
0
0
0
0
0
0
0
0
0
8.38929e-06
0.000130199
6.11457e-05
0
9.225e-05
0
0
0.000112949
0.000124278
0.000223701
0.000182616
0.000159656
0.000157378
0.000212495
0.000235469
0.000241159
0.0002397
0.000255689
0.000286977
0.0003058
0.000280698
0.000302519
0.0003152
0.000298839
0.000276444
0.000315823
0.000390709
0.000417904
0.000405487
0.000403707
0.000435609
0.000460468
0.000439299
0.00044608
0.000479564
0.00049381
0.000488061
0.000485204
0.000637402
0.000758039
0.000501618
0.000239791
0.000390641
0.000597823
0.000629236
0.000620109
0.000612475
0.000592521
0.000631289
0.000635408
0.000605733
0.000557503
0.000569458
0.000544728
0.00047448
0.000441593
0.00039584
0.000313186
0.0001383
3.00179e-05
0
0
0
0
0
0
0
0
0
0
0
0
0
0
0
0
0
0
0
0
0
0
0
0
0
0
0
0
0
0
0
0
0
0
0
0
0
0
0
0
0
0
0
0
0
0
0
0
0
0
0
0
0
0
0
0
0
0
0
0
0
0
0
0
0
0
0
0
0
0
0
0
0
0
0
0
0.000116093
9.2659e-05
0.000352391
0.000397067
0.000347983
0.000321105
0.000518538
0.000603324
0.000503585
0.000125619
0
0
0
7.98635e-05
0.00016673
0.000168467
6.94567e-06
0
0
0
0
0
0.000133416
0.000216254
0.000189729
0.000135076
0.000114675
0.000196191
0.0001951
0
0
0
0
0
0
8.77026e-05
0
0
0.000162837
0
0
0
0
0
0
0
0
0.000480761
0.00120869
0.00268186
0.00568245
0.00690581
0.00311955
0.0005239
0.00021023
0.000316017
0.000331182
0.000444901
0.000534878
0.000641364
0.000710591
0.000712714
0.000730124
0.000777723
0.000809464
0.000774709
0.000773842
0.000954947
0.00107278
0.000772549
0.000484752
0.000721348
0.00106802
0.000945188
0.000646158
0.000663932
0.000851249
0.000938943
0.000877064
0.000845479
0.000880202
0.000906708
0.000925715
0.000965787
0.000977774
0.000984622
0.000982453
0.000978945
0.00101474
0.00103694
0.0010405
0.00108662
0.00111992
0.00114814
0.00117869
0.00120171
0.0012515
0.00128446
0.00133287
0.00134252
0.0014034
0.00146716
0.00159256
0.00161476
0.00183392
0.00169381
0.00184653
0.00180388
0.00213185
0.00204145
0.00235635
0.00210538
0.00283703
0.00228805
0.00271453
0.00247069
0.00408934
0.00323247
0.00527457
0.00184934
0.00165968
0.0038605
0.00689717
0.00725563
0.0143694
0.00329616
0.0189256
0
0
0
0
0
0
0
0.0325457
0.138074
0
0
0
0
0
0
0
0
0
0
0
0
0
0.062509
0
0
0
0.00876254
0.00396179
0.00727383
0
0.00696574
0
0
0
0.0281955
0.02045
0.00713104
0
0
0.064039
0.0272315
0.0313043
0
0.0227431
0.0342456
0.0370847
0.0353209
0.0115011
0
0.000602184
0
0.0149358
0
0.00735854
0
0.0527947
0.0243062
0.0242265
0.0866063
0.0291482
0
0
0.00899767
0.0282161
0.0250909
0.00942248
0.0635738
0.161466
0.0957979
0.0822107
0.0172957
0.0193464
0.0240587
0
0
0
0
0
0
0
0
0
0
0
0
0
0
0
0
0
0
0
0
0
0.0012882
0
0.000257048
0
0
0.000864683
0.00103199
0.00181595
0.00185006
0
0
0.00231814
0.00270237
0.000975469
0.00105678
0.00138151
0
0
0.00139104
0.00134585
0.00185714
0.00123613
0.000954028
0.000877006
0.00140913
0.00169242
0.00187455
0.00170088
0.00167763
0.00195041
0.00217096
0.00205412
0.0018478
0.00188802
0.00216984
0.00217125
0.00191399
0.00201752
0.0024582
0.0025414
0.00224354
0.00218649
0.00257136
0.0026346
0.00237203
0.00255547
0.00281883
0.00257205
0.00249937
0.00309769
0.00354413
0.00265004
0.00164658
0.00211538
0.00305722
0.00332066
0.00337096
0.00337108
0.0032836
0.00346659
0.00358313
0.00334355
0.00314516
0.00330218
0.00303882
0.00269475
0.00230412
0.00214847
0.00095481
0.000124169
0
0
0
0
0
0
0
0
0
0
0
0
0
0
0
0
0
0
0
0
0
0
0
0
0
0
0
0
0
0
0
0
0
0
0
0
0
0
0
0
0
0
0
0
0
0
0
0
0
0
0
0
0
0
0.56359
0
0.188958
0.0958012
0.161917
0
0.246624
0
0
0
0
0
0
0
0
0
0
0
0
0
0
0
0
0.000723935
0
0
0
0
0
0
0.00347473
0.00176001
0
0
0
0
0
0
0
0
0
0
0
0
0
0
0
0
0
0
0
0
0
0
0
0
0
0
0
0
0
0
0
0
0
0
0
0
0
0
0.00348555
0.0118479
0.0265428
0.0494018
0.0328422
0.0120142
0.00479361
0.00407739
0.00491967
0.00497934
0.00515351
0.00527198
0.00542315
0.00552741
0.00528518
0.0051208
0.00532226
0.00524169
0.00497989
0.00472649
0.00491394
0.00473907
0.00373117
0.00327207
0.00358499
0.00371092
0.00324657
0.0029482
0.00277744
0.00273306
0.00243734
0.00221284
0.00210758
0.00197106
0.00171214
0.00145929
0.00124568
0.000982382
0.000642388
0.000472811
0.000269389
0
0
0
0
0
0
0
0
0
0
0
0
0
0
0
0
0
0
0
0
0
0
0
0
0
0
0
0
0
0
0
0
0
0
0
0
0
0
0
0.00550654
0.0079245
0.0109349
0.0268902
0
0.0460369
0
0
0
0.216863
0.0346202
0.042512
0.0284949
0.0280684
0.0173815
0.0107952
0.00726285
0.00981189
0.0409894
0.0128062
0.0161414
0
0.115105
0
0
0.0642201
0.0500478
0
0.00694053
0.0132702
0
0
0
0.00540549
0
0.00878395
0
0.00939789
0.00276959
0
0.0256207
0.0293857
0.060353
0.0271086
0.00408701
0.0051588
0.023542
0
0.00543148
0
0
0
0
0
0
0.040581
0.0219102
0.0282889
0
0
0
0
0
0
0.0160084
0
0
0
0
0
0
0
0
0.0176667
0
0
0
0
0
0
0
0
0
0
0
0
0
0
0
0
0
0
0
0
0
0
0
0
0
0
0
0
0
0
0
0
0.00211321
0.00167133
0.00134536
5.23952e-05
0
0.000468241
0.00154583
0.00233437
0.00270094
0.00225949
0.00217583
0.00207325
0.00306985
0.00321452
0.00350949
0.00330534
0.00355068
0.00394433
0.00419466
0.00391359
0.00398084
0.00413853
0.00416475
0.00391122
0.00413816
0.00491515
0.00538614
0.0051756
0.00497091
0.00523479
0.00565017
0.00554765
0.00541614
0.00581515
0.00601656
0.00567105
0.00562795
0.00729474
0.00905602
0.0064175
0.00307956
0.00460467
0.00707181
0.00745466
0.00747054
0.00744776
0.00727087
0.00780564
0.00818046
0.00770166
0.00738144
0.00771321
0.00732821
0.00686703
0.00618558
0.00637105
0.00416379
0.00289449
0
0
0
0
0
0
0
0
0
0
0
0
0
0
0
0
0
0
0
0
0
0
0
0
0
0
0
0
0
0
0
0
0
0
0
0
0
0
0
0
0
0
0
0
0
0
0
0
0
0
0
0
0
0
0
0
0
0
0.274725
0
0
0
0
0
0
0
0
0
0
0
0
0
0
0
0
0
0
0
0.0347836
0.004336
0.0103408
0
0.0193228
0.0214072
0.0264651
0.0159838
0.00971657
0
0
0
0
0
0.00186384
0
0
0
0
0
0
0.00216737
0.000397734
0.00011964
0
7.17817e-05
0.00118694
0.00222557
0
0
0
0
0
0
0.000557551
0
0
0
0.00162519
0
0
0
0
0
0
0
0.00646056
0.0177344
0.0423417
0.0658582
0.0766194
0.0228964
0.00314819
0.0013127
0.00328598
0.00361327
0.00495358
0.00590562
0.00707877
0.00786174
0.00788253
0.00790888
0.00849694
0.00864228
0.00842805
0.00843832
0.0100457
0.010862
0.00756725
0.00523158
0.00743217
0.00994113
0.008587
0.00610922
0.00628344
0.00799953
0.00830262
0.00773362
0.00764281
0.00763562
0.00775133
0.00769892
0.00761635
0.00768522
0.00736256
0.0071312
0.00719503
0.00714812
0.00707516
0.00702933
0.00698255
0.00684959
0.00682553
0.00672425
0.006639
0.00661651
0.00650959
0.00645004
0.0061788
0.0061171
0.0061207
0.00616644
0.00600949
0.00624879
0.00564343
0.00564771
0.00544982
0.00579832
0.00545583
0.00559579
0.00481893
0.00573945
0.00484346
0.00545757
0.00463659
0.004505
0.00382301
0.00660957
0.00598296
0.00768765
0.00345844
0.00445763
0
0.00451365
0.00264488
0
0.0108497
0.0210661
0
0.020438
0.0209281
0
0
0
0.055789
0.0544685
0
0.0119791
0
0
0
0
0
0
0
0
0
0
0
0
0
0
0
0
0.000625612
0.00758563
0.0148071
0
0.00982968
0.00404917
0
0.0114003
0
0.000794517
0
0.0307247
0.00191448
0.0309488
0.0192326
0.00578751
0
0
0.0265905
0.0189461
0
0
0
0.0191639
0.0157798
0
0
0.00750213
0
0.0940353
0
0
0
0
0
0
0.013867
0
0.0115699
0.0196348
0.0116881
0.0182697
0.0243534
0
0
0
0
0
0
0
0
0
0
0
0
0
0
0
0
0
0
0
0
0
0
0
0
0
0
0
0
0
0
0
0
0
0
0
0.00138998
0.00217948
0.00362342
0
0
0.000587049
0.00286455
0.00385939
0.00250874
0.00210545
0.00240673
0.00223491
0.0032831
0.00354594
0.00383899
0.00371226
0.00397061
0.00441217
0.00461253
0.00427506
0.00430873
0.00455999
0.00465688
0.00431645
0.00437613
0.00518159
0.00580198
0.00558166
0.00522738
0.00549686
0.00602311
0.00582849
0.00560674
0.00607871
0.0063026
0.00592243
0.00594109
0.00767252
0.0092928
0.00660207
0.00329087
0.00482385
0.00737375
0.00786894
0.00796451
0.00801341
0.00790895
0.00860863
0.00905135
0.00862179
0.00834851
0.0088306
0.00854364
0.00796951
0.00742988
0.0073488
0.00493768
0.00308094
0.000315448
0
0
0
0
0
0
0
0
0
0
0
0
0
0
0
0
0
0
0
0
0
0
0
0
0
0
0
0
0
0
0
0
0
0
0
0
0
0
0
0
0
0
0
0
0
0
0
0
0
0
0
0
0
0
0
0
0.0884361
0
0.872627
0
0
0
0
0
0
0
0
0
0
0
0
0
0
0
0
0
0.520697
0.585368
0.508091
0.441114
0.350257
0.69897
0.280745
0.39129
0.178126
0.150053
0.0486782
0
0.00384411
0.00750554
0.00632527
0.0101563
0.000123481
0
0
0
0
0
0
0
0
0
0
0.000230878
0.00136959
0
0
0
0
0
0
0
0
0
0
0
0
0
0
0
0
0
0
0.00785714
0.0232637
0.0566452
0.0778454
0.089773
0.0327309
0.00278046
0.00106423
0.00337364
0.00395188
0.00529464
0.0065146
0.00774394
0.00843589
0.00847702
0.0084389
0.00904193
0.00915309
0.00887803
0.00884756
0.0102842
0.0109032
0.00784296
0.00567709
0.00759103
0.00969735
0.00840026
0.00631034
0.0063425
0.00760655
0.00782068
0.00725311
0.00707408
0.00706159
0.00702885
0.00689473
0.0067733
0.00671848
0.0063775
0.00609752
0.00602833
0.00589383
0.00568749
0.00553351
0.00542465
0.00520117
0.00506394
0.00486069
0.00469601
0.00454897
0.00435116
0.00416416
0.00385299
0.00364573
0.00357735
0.00335329
0.00309633
0.00309309
0.0025691
0.00245169
0.00232828
0.00250647
0.00211935
0.00212648
0.00148568
0.00210146
0.00120605
0.00130458
0.00105441
0.00240927
0.00104915
0.00241102
0
0
0.000356223
0.00240436
0.00172475
0.01352
0.00282146
0.00867625
0
0
0
0
0.035422
0.0389193
0
0.00756437
0.0324555
0.0182166
0
0.629786
0.00460448
0.0166646
0.0109936
0.00118614
0
0
0.000108579
0
0
0
0.043823
0
0
0.0272699
0.0239904
0.00102829
0
0.0263108
0
0
0
0.0066003
0
0.013033
0.0607918
0
0
0.0258164
0.0303457
0.014266
0
0.0157417
0.000441854
0
0.0254103
0
0
0
0.00700834
0
0
0
0
0
0
0.0337174
0
0
0
0
0
0
0.0126529
0
0.00100544
0.00961909
0.00446676
0
0
0
0
0
0
0
0
0
0
0
0
0
0
0
0
0
0
0
0
0
0
0
0
0
0
0
0
0
0
0
0
0
0
0
0
0
0.00184802
0.00371629
0.00456239
0
0
0.00201429
0.00263535
0.00411389
0.0025944
0.00199862
0.00269557
0.0026636
0.00370963
0.00391624
0.00425909
0.00426057
0.00454137
0.00499621
0.00513384
0.00474632
0.00492344
0.00522532
0.00519435
0.00475426
0.00491988
0.00592457
0.00658517
0.00629117
0.0059223
0.00631412
0.0068233
0.00648891
0.00634751
0.00690961
0.00713362
0.00679437
0.00689265
0.00892283
0.0106976
0.00754487
0.00379959
0.0056748
0.00871114
0.00937987
0.0095798
0.00974741
0.00978662
0.0108218
0.0114553
0.0111652
0.0108825
0.0116846
0.0114987
0.0107239
0.0103824
0.0105167
0.00778869
0.00440389
0.00113206
0
0
0
0
0
0
0
0
0
0
0
0
0
0
0
0
0
0
0
0
0
0
0
0
0
0
0
0
0
0
0
0
0
0
0
0
0
0
0
0
0
0
0
0
0
0
0
0
0
0
0
0
0
0
0
0.0323246
0.804762
0.930555
0
0
0
0
0
0
0
0
0
0
0
0
0
0
0
0
0
0
0.228391
0.114119
0.319999
0.310981
0.252948
0.158985
0.489918
0.282196
0.382861
0.402822
0.432117
0
0.0266066
0
0.150876
0.041948
0.0556792
0
0.00114142
0
0
0
0.00398011
0.00599228
0.00494141
0.00352216
0.00244408
0.00432222
0.0046791
0
0
0
0
0
0
0
0
0
0
0
0
0
0
0
0
0
0
0.00814644
0.0295684
0.0748481
0.0970641
0.0999004
0.0414038
0.00220826
0.000122942
0.00283418
0.00353721
0.00495607
0.00668472
0.00809592
0.00888158
0.00901939
0.00905671
0.00971363
0.00991198
0.00961202
0.00958979
0.011252
0.0119526
0.00865642
0.006177
0.00821997
0.010708
0.00930763
0.00697942
0.00702905
0.00829222
0.00861506
0.00804639
0.00769497
0.00771287
0.00770687
0.00752914
0.00747094
0.00738076
0.00707278
0.00683219
0.00666723
0.00654623
0.00636348
0.00612255
0.0060119
0.00585592
0.00570024
0.00548526
0.00532274
0.00514453
0.00494211
0.00473015
0.00442345
0.00422009
0.00412039
0.00389532
0.00363863
0.00356936
0.00310107
0.00287947
0.0027693
0.00289924
0.00253944
0.002555
0.001937
0.00235497
0.0016569
0.00172536
0.00143209
0.00279623
0.000933755
0.00209566
0.000510366
0
0.00283878
0.00397717
0.000203459
0.0111061
0
0.00466978
0.00430848
0
0
0
0.00794586
0.0338844
0
0
0.00152283
0.00392854
0.000742799
0.0807524
0.189676
0.0951683
0.0294283
0.00889245
0.00653776
0
0
0
0
0
0
0
0
0
0
0
0
0
0
0
0.0164243
0.00275984
0
0.0115849
0
0.0143148
0
0.0325461
0.0547512
0.00454569
0
0.00707168
0
0
0.0268822
0
0
0.00043725
0
0.00310698
0.0146082
0
0
0
0
0
0.0652838
0
0
0
0
0
0.00187499
0.00518849
0
0.024599
0
0.015918
0
0
0
0
0
0
0
0
0
0
0
0
0
0
0
0
0
0
0
0
0
0
0
0
0
0
0
0
0
0
0
0
0
0
0.000987617
0
0
0.00484627
0.00527395
0
0
0.00261878
0.00500639
0.00508618
0.00205665
0.00233601
0.00266692
0.00287424
0.00392582
0.0041808
0.00469638
0.00478391
0.00508649
0.00534453
0.00539312
0.00513905
0.00546861
0.00579331
0.00561846
0.00509136
0.00542535
0.00660511
0.00717561
0.00675113
0.0065038
0.00700012
0.00749302
0.00716964
0.00711861
0.00774101
0.0078781
0.0075851
0.00782245
0.010094
0.0123265
0.00881784
0.00448512
0.00680039
0.0103588
0.01122
0.0117165
0.012112
0.0123597
0.0139925
0.015094
0.0148884
0.0151002
0.0163434
0.0163225
0.0157301
0.0158627
0.0165362
0.0121898
0.00791132
0
0
0.000980914
0
0
0
0
0
0
0
0
0
0
0
0
0
0
0
0
0
0
0
0
0
0
0
0
0
0
0
0
0
0
0
0
0
0
0
0
0
0
0
0
0
0
0
0
0
0
0
0
0
0
0
0
0
0.410892
0
0.0278639
0.152575
0
0
0
0
0
0
0
0
0
0
0
0
0
0
0
0
0
0.358925
0
0
0
0.547493
0.140136
0.447095
0.261156
0.549546
0.282002
0.366799
0.164889
0.146447
0
0.322738
0.153376
0.323982
0.098047
0.228141
0
0
0
0.137679
0.0691079
0.104876
0.0446336
0.0377057
0.0338163
0.0342007
0
0
0
0
0
0
0
0
0
0
0
0
0
0
0
0
0
0
0.00942358
0.0341741
0.0935254
0.138373
0.127444
0.0496275
0.00160804
0
0.00263222
0.0031628
0.00478711
0.00675693
0.00827396
0.009329
0.00956204
0.00956245
0.0102663
0.010446
0.0102338
0.0103451
0.0120629
0.01295
0.00938269
0.00668067
0.00888343
0.0113778
0.00991399
0.00745083
0.00748471
0.00887569
0.00918017
0.00858645
0.00836522
0.00830974
0.00834075
0.00822249
0.0079771
0.00794027
0.00766994
0.00727933
0.00717859
0.00710267
0.00690091
0.00670923
0.00657017
0.00636778
0.00622913
0.00599065
0.00583556
0.00564709
0.00545418
0.00526517
0.00492614
0.00470655
0.00460296
0.00434476
0.00415631
0.00397649
0.00361344
0.00329903
0.00324669
0.00327655
0.00296827
0.00292293
0.00234715
0.00266393
0.00216644
0.00221495
0.0018827
0.00172462
0.000886412
0.00333829
0.00225137
0.00215677
0.00239609
0.000980048
0
0
0
0.00323831
0.0117705
0.0231222
0.000664046
0
0.00690946
0
0.0131485
0.00772197
0
0
0
0.0168132
0.00398382
0.0898427
0.0359029
0.0107069
0.0134144
0
0
0
0
0
0
0
0
0
0.00698517
0
0.00478876
0.0172748
0
0
0
0.00994027
0
0.013132
0.0203011
0
0.00495077
0.00508387
0.0790508
0.106972
0.120323
0.0288065
0
0
0.0336578
0.00496964
0
0
0.00748673
0
0
0.145074
0
0
0
0
0.0580784
0
0
0
0
0
0
0.013704
0
0.00322204
0.0243604
0
0.00771173
0
0
0
0
0
0
0
0
0
0
0
0
0
0
0
0
0
0
0
0
0
0
0
0
0
0
0
0
0
0
0
0
0
0.00265903
0
0
0.00561414
0.00520203
0
0
0.00324402
0.00528698
0.00541492
0.0022384
0.00181696
0.00302492
0.00311359
0.00395741
0.00452576
0.00496183
0.00526721
0.00541113
0.00565808
0.00568909
0.00549933
0.00601085
0.00626241
0.00587914
0.00536887
0.00591861
0.00724506
0.00779118
0.00735414
0.00717988
0.00780142
0.00819067
0.0077924
0.00793952
0.00861702
0.00880946
0.00868647
0.00905313
0.0116787
0.014162
0.0102255
0.00549762
0.00836839
0.0126685
0.0139761
0.0148832
0.0156852
0.0164623
0.0189864
0.0209464
0.021458
0.0223512
0.0251024
0.0267583
0.0254063
0.0265972
0.0306963
0.0293268
0.0133386
0.00592199
0
0
0
0
0
0
0
0
0
0
0
0
0
0
0
0
0
0
0
0
0
0
0
0
0
0
0
0
0
0
0
0
0
0
0
0
0
0
0
0
0
0
0
0
0
0
0
0
0
0
0
0
0
0
0
0
0.0821355
0.762167
0
0
0
0
0
0
0
0
0
0
0
0
0
0
0
0
0
0
0
0.0433874
0
0
0.127877
0.374547
0.270391
0.438243
0.236159
0.416194
0.178441
0.19233
0
0.0888631
0.00572577
0.202604
0.126331
0.114782
0.0213487
0
0
0.110576
0
0.181406
0.158306
0.187133
0.0951251
0.247938
0.0716699
0.15182
0
0
0
0
0
0
0
0
0
0
0.00242539
0
0
0
0
0
0
0.0124186
0.0502225
0.116689
0.188771
0.154854
0.0667336
0.000253315
0
0.00243684
0.00299069
0.00476585
0.00717652
0.00879451
0.00986289
0.0100845
0.0101439
0.010799
0.0110829
0.0108373
0.010904
0.0127792
0.0136497
0.0099581
0.00705072
0.00924853
0.0120991
0.0105617
0.00794193
0.00802257
0.0093289
0.0096911
0.00919214
0.00876889
0.00869614
0.00877201
0.00860541
0.00845639
0.00833766
0.00811607
0.00785896
0.0076097
0.00750338
0.00740118
0.00710429
0.00693079
0.00682014
0.00668274
0.00644337
0.0062882
0.0060801
0.00587693
0.00565338
0.00535991
0.00513794
0.00501699
0.00477575
0.00457554
0.00438028
0.00402376
0.00366767
0.00358655
0.00360912
0.0033014
0.00327276
0.0026944
0.00302442
0.00240753
0.00244301
0.00240012
0.00195144
0.00146774
0.0037579
0.00162928
0.00269219
0.00180867
0
0.00317527
0.000223001
0
0.00939809
0
0.0128506
0.0137211
0
0
0
0.016528
0.0122396
0
0
0.00492113
0.00314583
0
0.0331113
0.233144
0.0541635
0.025655
0
0
0
0
0
0
0
0
0.0301926
0
0
0.0422216
0.0197979
0
0.00270584
0
0.0054546
0
0.0172256
0
0
0
0
0.00063908
0.00892968
0
0
0.0522531
0.0332334
0.0202433
0
0
0
0
0
0
0
0
0
0
0
0
0
0
0
0
0
0
0.0157744
0.00406458
0.00503008
0.00882006
0
0.017085
0
0
0
0
0
0
0
0
0
0
0
0
0
0
0
0
0
0
0
0
0
0
0
0
0
0
0
0
0
0
0
0
0
0.000613586
0
0
0.00617521
0.00311421
0
0
0.0034482
0.00684479
0.00462839
0.00237285
0.00245957
0.00282762
0.00309693
0.00405878
0.00473144
0.00542303
0.00573343
0.00579257
0.00576811
0.00584423
0.00591925
0.00654479
0.00671123
0.00618027
0.00570082
0.00651185
0.00794831
0.00830793
0.00783247
0.0079342
0.00862263
0.00898811
0.0087405
0.00905059
0.00976803
0.00991003
0.00999343
0.0105913
0.0137488
0.0171866
0.012691
0.00714131
0.0110581
0.0164662
0.0185227
0.0206321
0.0224907
0.0246817
0.0302228
0.0357304
0.0386603
0.0447879
0.0608879
0.0508033
0.0825251
0.074956
0.149694
0.0364615
0.145109
0
0
0.072496
0
0
0
0
0
0
0
0
0
0
0
0
0
0
0
0
0
0
0
0
0
0
0
0
0
0
0
0
0
0
0
0
0
0
0
0
0
0
0
0
0
0
0
0
0
0
0
0
0
0
0
0
0
0.442123
0.0974776
0.409796
0.647003
0.209869
0
0
0
0
0
0
0
0
0
0
0
0
0
0
0
0
0
0
0
0.0232769
0
0.356362
0.254535
0.456585
0.246163
0.396771
0.292434
0.428632
0.141331
0.302182
0.107511
0.381814
0.0289834
0.278764
0.100979
0
0
0
0.148915
0.353122
0.0827647
0.311958
0.146998
0.333107
0.203648
0.147205
0
0
0
0
0
0
0
0.100109
0.0464502
0
0
0
0
0
0
0
0
0.0010168
0.106446
0.188695
0.29023
0.21618
0.0977671
0
0
0.00298772
0.00362064
0.00542603
0.00821761
0.00989103
0.0110478
0.0111872
0.0110932
0.0116941
0.0118741
0.0116335
0.0117968
0.0135969
0.0146483
0.0107145
0.00752901
0.00985287
0.0126679
0.0110536
0.00829327
0.0083394
0.00981012
0.0100893
0.00952454
0.00934224
0.00915633
0.0092281
0.00923945
0.00883919
0.00870895
0.00858832
0.00814326
0.00794064
0.00789471
0.00776705
0.00758313
0.00740524
0.00718031
0.00704703
0.00682885
0.00666195
0.00644964
0.00625974
0.00607495
0.00575585
0.00551903
0.00539152
0.0051176
0.00499333
0.0046963
0.00447429
0.00404259
0.00400639
0.00393329
0.00370344
0.00356398
0.00312599
0.00323157
0.00270474
0.00267341
0.00268899
0.00282925
0.00216163
0.00268914
0.00186399
0.0018756
0.00207832
0.00189067
0.00224853
0.00663203
0.00355357
0.000247419
0
0
0.00815591
0.0166281
0
0
0.0188205
0.0112033
0
0
0.00730376
0.0052299
0
0.00746214
0.0202031
0.0661339
0.0363032
0.00400718
0
0
0
0
0
0.0671462
0
0
0
0
0.0249265
0
0.0181176
0
0
0.0105854
0
0.0139835
0
0.0222904
0
0.134451
0.00647243
0.00667203
0
0.0193373
0
0
0.0291409
0.00791351
0
0
0.00442331
0.00364805
0.0255034
0
0.00170895
0
0
0
0
0
0
0
0
0
0
0.00898041
0.0051837
0
0.0256666
0
0.00396937
0
0
0
0
0
0
0
0
0
0
0
0
0
0
0
0
0
0
0
0
0
0
0
0
0
0
0
0
0
0
0
0
0
0
0
0
0.00541832
0.000775667
0
0
0.00249989
0.00700811
0.00475459
0.00228919
0.002579
0.00297999
0.00317422
0.00395341
0.00511646
0.00578342
0.00614837
0.00595808
0.00602049
0.00620913
0.00639825
0.007169
0.00710296
0.00638627
0.00610419
0.00721263
0.00871646
0.00907269
0.00874156
0.00899562
0.00979495
0.0100366
0.00987512
0.0105473
0.0113448
0.0117828
0.0123007
0.0131631
0.0172561
0.0216042
0.0167118
0.0104386
0.0163266
0.0247789
0.0292564
0.0351337
0.0415714
0.0505531
0.0746254
0.0821875
0.118981
0.139937
0.221989
0.205117
0.333387
0.293955
0.460662
0.117089
0.267438
0
0
0.0058369
0
0
0
0
0
0
0
0
0
0
0
0
0
0
0
0
0
0
0
0
0
0
0
0
0
0
0
0
0
0
0
0
0
0
0
0
0
0
0
0
0
0
0
0
0
0
0
0
0
0
0
0
0
0.162605
0.606885
0.891227
0
0
0
0
0
0
0
0
0
0
0
0
0
0
0
0
0
0
0
0
0
0.0967951
0
0.0463947
0.355757
0.19089
0.381261
0.248518
0.228559
0.108115
0.143605
0.10283
0.110215
0.239828
0.193345
0.0132519
0.106731
0
0
0
0
0.0661252
0.240842
0.174176
0.154674
0.203095
0.278538
0.100949
0
0
0
0
0
0
0
0
0.0870255
0.235277
0
0
0
0
0
0
0
0.0364943
0.325099
0.356862
0.445314
0.344133
0.163673
0
0
0.00501222
0.00505608
0.00857386
0.0102787
0.0130159
0.01401
0.0136151
0.0130159
0.0132899
0.0133923
0.012957
0.0128401
0.0147144
0.0155479
0.0114465
0.00801603
0.0102152
0.013425
0.0117428
0.00874707
0.00890884
0.0102628
0.0105196
0.0100947
0.00969039
0.00945996
0.00953006
0.00948926
0.00929372
0.00898043
0.00883656
0.00870725
0.00830308
0.00812851
0.0081678
0.00787096
0.00760541
0.00753089
0.00740661
0.00718626
0.0070326
0.00679401
0.00657565
0.00634585
0.0060889
0.00586249
0.00571659
0.00547082
0.00532856
0.00507567
0.00479709
0.00437944
0.00428324
0.0042178
0.00399241
0.0038347
0.00341479
0.00350404
0.00303822
0.00300869
0.00270349
0.00330475
0.00249749
0.00248656
0.00275208
0.00240225
0.00197337
0.00350959
0.00103467
0.00331467
0.00586246
0.000740777
0.000187713
0.00318025
0
0.0124487
0.00363624
0
0.0048093
0.00474727
0.00477441
0.000380092
0
0.00364628
0
0.000781495
0.0143344
0.0459993
0.190608
0.0208525
0
0.000718803
0
0
0
0.0415536
0.0822211
0.0326437
0
0
0.0368513
0
0.0102503
0
0.0146339
0.00930802
0.0165847
0.0300035
0
0
0
0
0.0549178
0.0380296
0.00548679
0
0
0
0.021573
0
0.00198507
0.00165692
0.000494411
0
0
0.000735775
0
0
0
0
0
0
0.0217771
0
0.021313
0
0
0
0.00417424
0
0.0177857
0
0
0
0
0
0
0
0
0
0
0
0
0
0
0
0
0
0
0
0
0
0
0
0
0
0
0
0
0
0
0
0
0
0
0
0
0
0
0.0024723
0
0.00114163
0.000750049
0.00256835
0.0047014
0.00358941
0.0031767
0.0027732
0.00345243
0.00279121
0.00419602
0.00542373
0.0063568
0.00657564
0.00629753
0.00610325
0.00652341
0.007074
0.00780787
0.00758249
0.00683667
0.0067506
0.00818617
0.00975289
0.0099132
0.00972923
0.0104511
0.0112878
0.0116495
0.0119318
0.0129304
0.0139763
0.0146278
0.0157736
0.0178818
0.0243371
0.0350509
0.0285694
0.0197944
0.0335975
0.0556367
0.0722581
0.0922974
0.121421
0.160286
0.242059
0.258448
0.364792
0.378452
0.436827
0.332698
0.353915
0.302822
0.398237
0.109874
0.285732
0
0
0.0158734
0
0
0
0
0
0
0
0
0
0
0
0
0
0
0
0
0
0
0
0
0
0
0
0
0
0
0
0
0
0
0
0
0
0
0
0
0
0
0
0
0
0
0
0
0
0
0
0
0
0
0
0
0
0.523017
0.186728
0.583658
0.409388
0.488793
0
0
0
0
0
0
0
0
0
0
0
0
0
0
0
0
0
0
0
0.0976508
0
0
0.167879
0.0594282
0.446113
0.214834
0.432729
0.062457
0
0.175765
0.0244524
0.112718
0.370493
0.0239077
0.0772053
0
0
0
0.139762
0.212242
0.291941
0.189277
0.262703
0.218163
0.283211
0.170648
0
0
0
0
0
0.0603677
0.16636
0
0
0.00735302
0.29419
0
0
0
0
0
0.223374
0
0.835424
0.717493
0.677159
0.565491
0.310614
0
0
0.0135072
0.0126943
0.0160808
0.0182558
0.0227619
0.0212503
0.0194268
0.0171991
0.0167226
0.0160816
0.0149522
0.0147195
0.01604
0.0168843
0.0125672
0.00867568
0.0108299
0.0141151
0.0122548
0.00908599
0.00916754
0.0107472
0.0108807
0.0102851
0.0102784
0.00991026
0.00986419
0.0101179
0.00966924
0.00928279
0.00920874
0.00884697
0.00856771
0.00842678
0.0083544
0.00829908
0.00807786
0.00777023
0.00764397
0.00748087
0.00730911
0.0070869
0.00687899
0.00668951
0.00640978
0.00616232
0.00600402
0.00574135
0.00562236
0.00532334
0.00515179
0.00471347
0.00467274
0.00447931
0.00440986
0.00407662
0.00375548
0.00370076
0.00349883
0.00308821
0.00309216
0.00340665
0.0025566
0.00318255
0.00327242
0.00230775
0.00321402
0.00196933
0.001804
0.00315223
0.000931321
0.00591019
0.00572249
0.00205121
0.00141945
0.00382654
0.00276399
0.00709225
0.00161128
0
0.00666008
0.00639875
0
0.0042511
0
0
0.00394946
0.008264
0.0636715
0.0353862
0.00117178
0.0033439
0
0
0
0.0292432
0.0915303
0
0
0.00524606
0.00281125
0
0.0170824
0
0.0112403
0.0122413
0
0.016402
0.034086
0.0121127
0.0220559
0
0
0.0108421
0
0
0
0.025775
0.0241333
0.000908504
0
0
0
0.00826512
0
0
0
0
0
0
0
0.00401886
0
0
0
0
0
0
0.0113807
0
0.00552024
0
0
0
0
0
0
0
0
0
0
0
0
0
0
0
0
0
0
0
0
0
0
0
0
0
0
0
0
0
0
0
0
0
0
0
0
0
0
0
0
0.00336371
0.0020326
0.000578663
0.00441465
0.00301376
0.00378021
0.00321055
0.00309674
0.00310112
0.00422852
0.00590919
0.00691965
0.00694366
0.00648165
0.00660883
0.00731961
0.00794043
0.00873241
0.00817444
0.00736195
0.00772605
0.00956971
0.0111603
0.0115236
0.0118287
0.0128909
0.0140416
0.0145403
0.0155633
0.018207
0.0198819
0.0234161
0.0282862
0.0338089
0.0608934
0.0738278
0.0584267
0.0688426
0.114673
0.168446
0.229452
0.282265
0.357214
0.400926
0.460271
0.42796
0.429759
0.422238
0.453117
0.34338
0.303622
0.321214
0.390399
0.156175
0.169835
0
0
0.038532
0
0
0
0
0
0
0
0
0
0
0
0
0
0
0
0
0
0
0
0
0
0
0
0
0
0
0
0
0
0
0
0
0
0
0
0
0
0
0
0
0
0
0
0
0
0
0
0
0
0
0
0
0
0.509686
0.645061
0.891024
0.00226265
0
0
0
0
0
0
0
0
0
0
0
0
0
0
0
0
0
0
0
0
0
0.295474
0.332362
0
0.152531
0.231551
0.400081
0.173116
0.164918
0.0806762
0
0.194633
0
0.115143
0.03426
0.0811741
0
0
0
0.122735
0
0.173358
0.132957
0.230119
0.222046
0.287186
0.138121
0
0
0
0
0
0
0.0495988
0.135244
0.0233182
0
0
0
0
0
0
0
0.158701
0
0.676726
0.914448
0.825888
0.732513
0.682604
0
0
0.0441402
0.0401605
0.040794
0.0498945
0.0479167
0.047182
0.0369015
0.0337509
0.0285523
0.0267148
0.0219057
0.0197798
0.0198491
0.0193649
0.0138478
0.00958039
0.0108293
0.014638
0.0127538
0.00913903
0.00958191
0.0110651
0.01074
0.0104949
0.0104404
0.0100503
0.00994351
0.0101313
0.0101189
0.00946923
0.0092354
0.00939017
0.00891408
0.00853026
0.00864835
0.00843391
0.00813499
0.00806289
0.00792296
0.00773904
0.00761629
0.00733972
0.00710827
0.00683955
0.00662523
0.00642348
0.00623496
0.0060228
0.00589534
0.00564346
0.00541272
0.00499726
0.00489633
0.00469147
0.00462776
0.00433565
0.00394016
0.00400484
0.00369921
0.00337817
0.00343316
0.00357672
0.00258235
0.00377888
0.00319179
0.00249602
0.00427107
0.00152702
0.00263854
0.00478053
0.00103697
0.00330071
0.00619517
0.0045351
0.00457491
0.00211479
0.00127564
0.0107017
0.00434397
0
0.00461405
0.00706292
0.000713303
0.00261732
0.000784102
0
0.000650771
0.00379473
0.0171388
0.196203
0.00853102
0.00693725
0
0
0
0.0238234
0.0813774
0
0
0
0.00466863
0
0.00451914
0
0.00742146
0.0129157
0
0.0156687
0
0
0
0.0379674
0.0465628
0
0.0237313
0.0369399
0.064756
0
0.0270583
0
0.00353454
0.00561163
0
0
0
0.0446253
0
0
0
0
0
0.0688565
0
0
0
0
0
0
0.00450529
0
0.00343103
0
0
0
0
0
0
0
0
0
0
0
0
0
0
0
0
0
0
0
0
0
0
0
0
0
0
0
0
0
0
0
0
0
0
0
0
0.000168886
0
0
0
0.0038913
0.00745637
0.00223733
7.97817e-05
0.00230592
0.00363411
0.00405589
0.00351585
0.00306985
0.00480711
0.00654168
0.00773042
0.00750724
0.00714658
0.00712032
0.0082804
0.009363
0.00993986
0.00924315
0.0087142
0.00961444
0.0120676
0.0139132
0.0143964
0.0159028
0.0192025
0.0208863
0.0236246
0.0309737
0.0372858
0.0441047
0.0593611
0.0832535
0.0956657
0.213867
0.250213
0.181482
0.19864
0.291625
0.283978
0.347898
0.372045
0.387999
0.402664
0.447428
0.409326
0.392321
0.372512
0.417032
0.341978
0.31878
0.275014
0.358314
0.195282
0.186925
0
0
0
0
0
0
0
0
0
0
0
0
0
0
0
0
0
0
0
0
0
0
0
0
0
0
0
0
0
0
0
0
0
0
0
0
0
0
0
0
0
0
0
0
0
0
0
0
0
0
0
0
0
0
0
0
0.572865
0.351743
0.7498
0.502004
0.680591
0
0
0
0
0
0
0
0
0
0
0
0
0
0
0
0
0
0
0.220415
0
0
0.150617
0.536557
0.177908
0
0.429025
0.0553571
0.265233
0.137696
0
0.00216536
0.034234
0
0.0316597
0.0339721
0
0
0
0.0313525
0.120362
0.242105
0.196146
0.240116
0.248356
0.305908
0.144702
0
0
0
0
0
0
0
0
0.186784
0.0908908
0
0
0.027771
0
0
0
0.170415
0.166524
0.623124
0.966045
0.905631
0.898532
0.904547
0
0
0.138015
0.139459
0.123249
0.162559
0.148956
0.153139
0.113835
0.115259
0.0869905
0.0654384
0.0591566
0.0446682
0.0409794
0.0369321
0.0234394
0.0152466
0.0159035
0.0174748
0.014985
0.0101236
0.00933986
0.0115825
0.0105902
0.00946708
0.0105214
0.0101302
0.00930994
0.0101488
0.0101981
0.00950898
0.00926203
0.00915329
0.00906216
0.00873203
0.00857568
0.00872854
0.00858417
0.00816556
0.00802277
0.00791073
0.0077507
0.00754626
0.00733322
0.00712216
0.00687563
0.00661656
0.00643784
0.00619499
0.00607182
0.00579514
0.00566846
0.00524642
0.0052491
0.00492748
0.00498026
0.00456
0.00426357
0.00412929
0.00400323
0.00356359
0.00379096
0.00353535
0.00308523
0.00375912
0.00315331
0.00308347
0.00442489
0.00155593
0.00386148
0.00361166
0.0034446
0.0036913
0.0015294
0.00604647
0.00745447
0.00229871
0.000533272
0.00756803
0.00530062
0.0046848
0.000832152
0.00614405
0.00224928
0.00307951
0
0
0
0
0.00492776
0.12123
0.0183292
0.00868168
0
0
0
0
0.0367402
0.0837519
0
0
0.00927127
0
0.0165058
0
0
0.0127829
0
0.0273381
0.0508811
0
0.0100226
0
0.0250207
0.033462
0
0
0.0105978
0
0.00848797
0.0300204
0
0
0
0.00909128
0
0.00657386
0
0
0
0
0.0265084
0.0601612
0
0
0
0
0
0
0
0
0
0
0
0
0
0
0
0
0
0
0
0
0
0
0
0
0
0
0
0
0
0
0
0
0
0
0
0
0
0
0
0
0
0
0
0
0
0.000871915
0.00160624
0
0
0.000818552
0.00721193
0.00391886
0.000993264
0.00149429
0.00467403
0.003685
0.0033941
0.00375359
0.00553768
0.0075952
0.00876759
0.00835266
0.00796675
0.00880386
0.0106648
0.0118386
0.0125033
0.0115376
0.0114923
0.0142095
0.0185611
0.0213058
0.0248435
0.0332471
0.042004
0.0468311
0.0625178
0.0936303
0.101322
0.140743
0.180451
0.203247
0.234124
0.346236
0.363785
0.252486
0.248061
0.325161
0.329258
0.395472
0.388211
0.392467
0.407598
0.450843
0.423551
0.427947
0.392937
0.428483
0.373432
0.343662
0.287388
0.338861
0.224415
0.154138
0
0
0
0
0
0
0
0
0
0
0
0
0
0
0
0
0
0
0
0
0
0
0
0
0
0
0
0
0
0
0
0
0
0
0
0
0
0
0
0
0
0
0
0
0
0
0
0
0
0
0
0
0
0
0
0.187212
0.723412
0.660248
0.899559
0.207858
0
0
0
0
0
0
0
0
0
0
0
0
0
0
0
0
0
0
0
0
0
0
0
0
0.569126
0.348311
0.341006
0.0747132
0.0736075
0
0.201851
0
0.0545923
0
0.108461