/*--------------------------------*- C++ -*----------------------------------*\
| =========                 |                                                 |
| \\      /  F ield         | OpenFOAM: The Open Source CFD Toolbox           |
|  \\    /   O peration     | Version:  v2006                                 |
|   \\  /    A nd           | Website:  www.openfoam.com                      |
|    \\/     M anipulation  |                                                 |
\*---------------------------------------------------------------------------*/
FoamFile
{
    version     2.0;
    format      ascii;
    class       volScalarField;
    location    "60";
    object      nut;
}
// * * * * * * * * * * * * * * * * * * * * * * * * * * * * * * * * * * * * * //

dimensions      [0 2 -1 0 0 0 0];


internalField   nonuniform List<scalar> 
93840
(
2.82625e-08
2.83433e-08
2.82191e-08
2.81426e-08
2.83289e-08
2.82661e-08
2.82606e-08
2.88897e-08
2.83671e-08
2.89087e-08
2.87382e-08
2.93845e-08
2.9383e-08
2.99899e-08
3.08111e-08
3.08246e-08
2.93804e-08
2.80292e-08
2.37031e-08
4.63671e-07
4.19111e-06
1.425e-05
3.27594e-05
4.41737e-05
3.62887e-05
2.53247e-05
2.10244e-05
1.69388e-05
1.56875e-05
1.48017e-05
1.35644e-05
1.28027e-05
1.29341e-05
1.24776e-05
1.23706e-05
1.23306e-05
1.20147e-05
1.21028e-05
1.17503e-05
1.18565e-05
1.15413e-05
1.16339e-05
1.13539e-05
1.14234e-05
1.11849e-05
1.12314e-05
1.10432e-05
1.10938e-05
1.09599e-05
1.10154e-05
1.0949e-05
1.10312e-05
1.09925e-05
1.10638e-05
1.10991e-05
1.12149e-05
1.12091e-05
1.12419e-05
1.11813e-05
1.11853e-05
1.11577e-05
1.11213e-05
1.10388e-05
1.10125e-05
1.09429e-05
1.08836e-05
1.08254e-05
1.08037e-05
1.07591e-05
1.07594e-05
1.07707e-05
1.07994e-05
1.08218e-05
1.08481e-05
1.0843e-05
1.08812e-05
1.09656e-05
1.10957e-05
1.12049e-05
1.1221e-05
1.11801e-05
1.12131e-05
1.13887e-05
1.15952e-05
1.1611e-05
1.15121e-05
1.15666e-05
1.18208e-05
1.19654e-05
1.18639e-05
1.18545e-05
1.21006e-05
1.23079e-05
1.22814e-05
1.23019e-05
1.25675e-05
1.27514e-05
1.27366e-05
1.28997e-05
1.31827e-05
1.32574e-05
1.33844e-05
1.3656e-05
1.39554e-05
1.42683e-05
1.44192e-05
1.44342e-05
1.47126e-05
1.50099e-05
1.53008e-05
1.55784e-05
1.59054e-05
1.61701e-05
1.65551e-05
1.68552e-05
1.72031e-05
1.74892e-05
1.78647e-05
1.81513e-05
1.84809e-05
1.87252e-05
1.904e-05
1.91886e-05
1.93972e-05
1.93981e-05
1.9367e-05
1.95014e-05
1.92577e-05
1.93713e-05
1.92294e-05
1.91304e-05
1.90228e-05
1.89088e-05
1.88345e-05
1.87585e-05
1.86518e-05
1.85377e-05
1.84671e-05
1.83688e-05
1.83369e-05
1.82688e-05
1.82052e-05
1.80882e-05
1.80486e-05
1.7966e-05
1.79356e-05
1.7861e-05
1.7823e-05
1.77084e-05
1.76439e-05
1.7534e-05
1.7473e-05
1.73427e-05
1.72401e-05
1.70957e-05
1.69771e-05
1.68016e-05
1.66481e-05
1.64412e-05
1.6252e-05
1.60514e-05
1.58639e-05
1.56067e-05
1.53518e-05
1.50399e-05
1.46958e-05
1.4223e-05
1.35712e-05
1.25628e-05
1.11589e-05
1.01446e-05
1.05235e-05
9.58505e-06
4.4221e-06
3.10331e-09
6.17091e-07
1.99352e-06
8.22954e-07
3.1397e-07
2.4827e-07
1.50931e-07
2.2428e-07
5.18624e-08
2.62093e-07
1.05862e-06
3.94729e-07
4.13368e-10
6.91336e-06
7.69458e-06
1.57374e-07
9.18029e-06
1.97142e-05
2.06781e-05
2.0492e-05
2.39807e-05
2.72411e-05
2.92406e-05
2.99985e-05
3.03976e-05
3.04645e-05
3.03822e-05
3.02454e-05
3.00937e-05
2.99491e-05
2.98131e-05
2.96396e-05
2.94666e-05
2.92688e-05
2.90708e-05
2.88565e-05
2.86834e-05
2.85063e-05
2.8351e-05
2.81788e-05
2.80122e-05
2.78156e-05
2.7638e-05
2.74734e-05
2.73135e-05
2.71451e-05
2.72054e-05
2.70644e-05
2.68935e-05
2.67223e-05
2.65441e-05
2.63513e-05
2.61634e-05
2.59877e-05
2.58051e-05
2.56148e-05
2.55244e-05
2.5549e-05
2.55611e-05
2.55613e-05
2.55536e-05
2.54092e-05
2.52849e-05
2.51332e-05
2.50333e-05
2.49332e-05
2.48787e-05
2.48287e-05
2.48082e-05
2.47957e-05
2.4744e-05
2.46733e-05
2.46083e-05
2.45546e-05
2.40633e-05
2.35449e-05
2.11907e-05
1.70224e-05
1.52772e-05
1.52269e-05
1.56239e-05
1.60506e-05
1.62676e-05
1.62976e-05
1.6198e-05
1.60064e-05
1.57706e-05
1.55e-05
1.52353e-05
1.49675e-05
1.46721e-05
1.43846e-05
1.41076e-05
1.38051e-05
1.33247e-05
1.28428e-05
1.27488e-05
1.25755e-05
1.22052e-05
1.17278e-05
1.15125e-05
1.13168e-05
1.11313e-05
1.07788e-05
1.0479e-05
1.02358e-05
1.00167e-05
9.71333e-06
9.46e-06
9.24902e-06
8.98143e-06
8.67981e-06
8.49061e-06
8.27692e-06
8.00448e-06
7.76793e-06
7.57417e-06
7.34926e-06
7.11278e-06
6.89616e-06
6.68764e-06
6.47718e-06
6.26569e-06
6.04958e-06
5.83563e-06
5.62295e-06
5.41017e-06
5.18484e-06
4.96241e-06
4.73566e-06
4.53507e-06
4.3377e-06
4.17084e-06
3.98461e-06
3.82549e-06
3.64522e-06
3.49839e-06
3.31692e-06
3.18754e-06
3.0028e-06
2.88995e-06
2.68407e-06
2.57945e-06
2.3508e-06
2.25941e-06
2.04753e-06
1.96208e-06
1.83866e-06
1.75067e-06
1.6702e-06
1.6123e-06
1.58689e-06
1.57049e-06
1.5753e-06
1.63821e-06
1.71489e-06
1.80041e-06
2.02567e-06
2.13183e-06
2.56915e-06
3.62123e-06
3.23846e-06
8.95663e-06
1.41783e-05
1.93499e-05
2.17159e-05
2.35557e-05
2.47916e-05
2.45498e-05
3.56084e-05
4.50782e-05
3.50984e-05
1.54253e-05
4.3036e-06
7.37531e-07
2.5645e-08
2.10748e-08
2.88609e-08
2.78749e-08
2.86977e-08
2.96502e-08
2.93589e-08
2.92329e-08
2.87164e-08
2.89096e-08
2.83627e-08
2.88679e-08
2.81836e-08
2.82996e-08
2.82486e-08
2.81073e-08
2.81488e-08
2.82932e-08
2.82347e-08
2.82284e-08
2.82978e-08
2.81745e-08
2.81081e-08
2.8237e-08
2.83055e-08
2.82029e-08
2.88558e-08
2.82697e-08
2.88455e-08
2.86968e-08
2.92166e-08
2.93642e-08
2.95907e-08
2.95374e-08
3.12324e-08
3.19938e-08
3.91369e-08
9.22983e-08
3.77619e-07
2.79808e-06
1.14425e-05
2.87956e-05
4.12908e-05
3.58858e-05
2.77318e-05
2.48008e-05
1.99334e-05
1.72005e-05
1.56192e-05
1.42752e-05
1.37347e-05
1.31705e-05
1.30577e-05
1.28897e-05
1.24913e-05
1.25212e-05
1.19581e-05
1.2105e-05
1.14436e-05
1.16774e-05
1.09817e-05
1.12903e-05
1.06218e-05
1.10262e-05
1.04648e-05
1.10183e-05
1.06772e-05
1.14639e-05
1.14598e-05
1.25107e-05
1.28192e-05
1.39729e-05
1.43627e-05
1.53879e-05
1.57213e-05
1.65742e-05
1.67847e-05
1.73809e-05
1.73658e-05
1.76899e-05
1.75374e-05
1.76164e-05
1.72993e-05
1.72543e-05
1.68834e-05
1.6739e-05
1.64557e-05
1.6448e-05
1.6377e-05
1.65814e-05
1.67011e-05
1.68477e-05
1.67791e-05
1.6747e-05
1.68161e-05
1.73441e-05
1.79976e-05
1.84125e-05
1.8208e-05
1.78087e-05
1.78971e-05
1.88991e-05
1.97632e-05
1.9411e-05
1.84621e-05
1.85514e-05
1.99145e-05
2.03838e-05
1.92948e-05
1.8716e-05
1.97796e-05
2.04437e-05
1.95222e-05
1.89511e-05
1.99195e-05
2.02421e-05
1.92372e-05
1.94017e-05
2.02595e-05
1.96044e-05
1.93463e-05
2.00071e-05
1.96704e-05
1.94789e-05
2.0001e-05
1.95886e-05
1.9582e-05
1.96645e-05
1.95908e-05
1.95151e-05
1.96957e-05
1.9543e-05
1.96933e-05
1.95793e-05
1.96141e-05
1.95304e-05
1.95063e-05
1.9399e-05
1.93304e-05
1.91855e-05
1.90911e-05
1.88999e-05
1.87785e-05
1.85644e-05
1.8436e-05
1.82104e-05
1.80499e-05
1.78558e-05
1.76416e-05
1.74648e-05
1.7256e-05
1.70716e-05
1.68673e-05
1.66685e-05
1.64734e-05
1.62806e-05
1.60986e-05
1.5895e-05
1.57058e-05
1.54908e-05
1.52929e-05
1.50825e-05
1.48872e-05
1.46623e-05
1.44526e-05
1.4208e-05
1.39714e-05
1.37069e-05
1.34674e-05
1.31914e-05
1.29173e-05
1.25982e-05
1.22941e-05
1.19368e-05
1.15579e-05
1.11061e-05
1.06316e-05
1.00772e-05
9.48928e-06
8.76512e-06
7.90665e-06
6.92186e-06
6.02191e-06
5.36205e-06
4.83507e-06
3.89431e-06
2.39673e-06
8.07542e-07
1.9146e-07
5.57244e-07
1.16837e-06
8.391e-07
1.92764e-08
4.73854e-08
7.22713e-08
5.32368e-08
6.22265e-09
3.29446e-08
2.50979e-08
1.31474e-08
4.8087e-08
3.53021e-08
2.86122e-08
3.3357e-09
1.98105e-08
1.23639e-09
1.00683e-08
7.98512e-09
1.89655e-08
2.81785e-07
2.71108e-06
2.71184e-06
1.03263e-06
1.84723e-06
4.74822e-06
7.42021e-06
8.28868e-06
8.75477e-06
1.00496e-05
1.2059e-05
1.39999e-05
1.55207e-05
1.67751e-05
1.79054e-05
1.88543e-05
1.96671e-05
2.0319e-05
2.08494e-05
2.12807e-05
2.16377e-05
2.19343e-05
2.21831e-05
2.24025e-05
2.25998e-05
2.277e-05
2.29282e-05
2.30664e-05
2.31867e-05
2.33049e-05
2.33913e-05
2.35118e-05
2.36143e-05
2.373e-05
2.38216e-05
2.39324e-05
2.40041e-05
2.40992e-05
2.41627e-05
2.4253e-05
2.42934e-05
2.43664e-05
2.44156e-05
2.45184e-05
2.45955e-05
2.47327e-05
2.48218e-05
2.49544e-05
2.5031e-05
2.51445e-05
2.52088e-05
2.53185e-05
2.53897e-05
2.54953e-05
2.56566e-05
2.55722e-05
2.60218e-05
2.56496e-05
2.61656e-05
2.63273e-05
2.48033e-05
2.60344e-05
2.60484e-05
2.52672e-05
2.61697e-05
2.73782e-05
2.74984e-05
2.69418e-05
2.6174e-05
2.54273e-05
2.4794e-05
2.42601e-05
2.37621e-05
2.34431e-05
2.29961e-05
2.27824e-05
2.23972e-05
2.21844e-05
2.18156e-05
2.15024e-05
2.15736e-05
2.11923e-05
2.08303e-05
2.05728e-05
2.05097e-05
2.00985e-05
2.01799e-05
1.9943e-05
1.97267e-05
1.97256e-05
1.98436e-05
1.95014e-05
1.94061e-05
1.95842e-05
1.94837e-05
1.91101e-05
1.92757e-05
1.9339e-05
1.90438e-05
1.88937e-05
1.89773e-05
1.89061e-05
1.87341e-05
1.86334e-05
1.85598e-05
1.84797e-05
1.83514e-05
1.82137e-05
1.80311e-05
1.78874e-05
1.76546e-05
1.74204e-05
1.70837e-05
1.68545e-05
1.6617e-05
1.65461e-05
1.63982e-05
1.63664e-05
1.61733e-05
1.61063e-05
1.58569e-05
1.5784e-05
1.55256e-05
1.54722e-05
1.51933e-05
1.51207e-05
1.47998e-05
1.46904e-05
1.43507e-05
1.42017e-05
1.37941e-05
1.35209e-05
1.30109e-05
1.26346e-05
1.21864e-05
1.19694e-05
1.17073e-05
1.16883e-05
1.17144e-05
1.20034e-05
1.207e-05
1.2683e-05
1.26558e-05
1.39743e-05
1.48144e-05
1.69281e-05
2.22015e-05
2.66465e-05
3.28472e-05
3.73238e-05
4.04079e-05
4.11163e-05
3.64206e-05
4.02459e-05
4.58294e-05
3.66468e-05
1.72461e-05
4.74292e-06
8.0544e-07
1.14159e-07
2.74449e-08
2.59136e-08
3.06493e-08
3.01304e-08
2.96686e-08
2.93491e-08
2.93004e-08
2.87229e-08
2.89278e-08
2.84068e-08
2.89e-08
2.82205e-08
2.82861e-08
2.83099e-08
2.81347e-08
2.82539e-08
2.83553e-08
2.82652e-08
2.826e-08
2.83327e-08
2.82394e-08
2.81107e-08
2.82983e-08
2.82942e-08
2.82141e-08
2.89008e-08
2.83987e-08
2.89484e-08
2.8733e-08
2.92675e-08
2.93111e-08
2.95913e-08
2.90343e-08
2.98481e-08
3.32655e-08
2.88822e-08
2.43955e-08
6.60349e-08
1.44736e-06
7.89791e-06
2.27958e-05
3.544e-05
3.15936e-05
2.50586e-05
2.4199e-05
2.10983e-05
1.94411e-05
1.8138e-05
1.69929e-05
1.63893e-05
1.5672e-05
1.52904e-05
1.46648e-05
1.42434e-05
1.36648e-05
1.31923e-05
1.26929e-05
1.21973e-05
1.1832e-05
1.13857e-05
1.12414e-05
1.09719e-05
1.12064e-05
1.13151e-05
1.21277e-05
1.2813e-05
1.42877e-05
1.5518e-05
1.74132e-05
1.88659e-05
2.07948e-05
2.21987e-05
2.40437e-05
2.537e-05
2.70358e-05
2.80066e-05
2.91035e-05
2.94133e-05
2.98337e-05
2.95396e-05
2.93208e-05
2.85517e-05
2.79836e-05
2.70238e-05
2.64159e-05
2.57903e-05
2.57261e-05
2.57659e-05
2.62902e-05
2.66143e-05
2.67657e-05
2.64609e-05
2.63326e-05
2.67821e-05
2.83589e-05
3.00127e-05
3.0645e-05
2.96572e-05
2.85306e-05
2.92058e-05
3.21241e-05
3.39836e-05
3.22219e-05
2.93674e-05
3.00575e-05
3.37804e-05
3.42953e-05
3.0587e-05
2.9173e-05
3.21311e-05
3.32467e-05
3.00864e-05
2.86514e-05
3.11018e-05
3.12215e-05
2.82223e-05
2.87293e-05
3.03806e-05
2.8177e-05
2.74887e-05
2.87789e-05
2.74521e-05
2.68174e-05
2.7695e-05
2.63172e-05
2.60829e-05
2.59144e-05
2.53632e-05
2.48995e-05
2.49625e-05
2.42658e-05
2.42952e-05
2.36966e-05
2.34745e-05
2.29905e-05
2.26534e-05
2.21831e-05
2.1793e-05
2.1322e-05
2.09448e-05
2.0475e-05
2.01147e-05
1.9702e-05
1.93531e-05
1.89178e-05
1.86101e-05
1.81607e-05
1.78185e-05
1.74217e-05
1.70375e-05
1.66463e-05
1.62297e-05
1.58399e-05
1.54331e-05
1.50436e-05
1.46424e-05
1.42065e-05
1.37779e-05
1.33166e-05
1.2879e-05
1.24206e-05
1.19562e-05
1.14525e-05
1.09478e-05
1.03966e-05
9.83041e-06
9.21934e-06
8.60256e-06
7.91751e-06
7.19643e-06
6.40474e-06
5.647e-06
4.87495e-06
4.16421e-06
3.42573e-06
2.7026e-06
2.00385e-06
1.52138e-06
1.16865e-06
7.91585e-07
2.77566e-07
7.18931e-08
8.24542e-08
9.89775e-08
2.29555e-08
2.00842e-08
8.70532e-08
9.22644e-08
1.99283e-08
2.87342e-08
6.03049e-08
7.7409e-08
4.71016e-08
3.33027e-08
2.04152e-08
7.00206e-08
5.31488e-08
8.52425e-08
9.24444e-08
9.59003e-08
4.97399e-08
4.17587e-08
7.29379e-08
9.11056e-08
6.59675e-08
5.5516e-08
5.09725e-08
6.82968e-08
2.81079e-08
4.52917e-08
6.53663e-08
4.764e-08
1.13864e-08
7.13732e-08
4.50136e-07
3.2573e-07
1.05734e-07
3.27252e-07
1.06169e-06
1.77589e-06
2.37198e-06
3.18976e-06
4.12645e-06
5.07409e-06
6.1032e-06
7.24881e-06
8.36215e-06
9.51518e-06
1.06616e-05
1.18474e-05
1.30019e-05
1.41328e-05
1.51422e-05
1.60528e-05
1.68275e-05
1.7584e-05
1.8198e-05
1.88412e-05
1.93474e-05
1.98705e-05
2.03254e-05
2.08294e-05
2.12587e-05
2.17538e-05
2.21613e-05
2.26346e-05
2.3017e-05
2.34686e-05
2.38193e-05
2.42346e-05
2.45189e-05
2.49448e-05
2.52213e-05
2.56685e-05
2.59828e-05
2.64408e-05
2.67439e-05
2.71859e-05
2.74409e-05
2.78758e-05
2.81127e-05
2.85359e-05
2.8933e-05
2.89684e-05
2.98247e-05
2.96e-05
3.0021e-05
3.12719e-05
2.88836e-05
3.22201e-05
3.30043e-05
3.22832e-05
3.44071e-05
3.75419e-05
3.87503e-05
3.84782e-05
3.75496e-05
3.65366e-05
3.56282e-05
3.4925e-05
3.41932e-05
3.39118e-05
3.32635e-05
3.31556e-05
3.26239e-05
3.25218e-05
3.21594e-05
3.16953e-05
3.21508e-05
3.17223e-05
3.13187e-05
3.10357e-05
3.12429e-05
3.05435e-05
3.11096e-05
3.10355e-05
3.08191e-05
3.10666e-05
3.18279e-05
3.14278e-05
3.14249e-05
3.22721e-05
3.2581e-05
3.19271e-05
3.26385e-05
3.3343e-05
3.30248e-05
3.29139e-05
3.35258e-05
3.38056e-05
3.37372e-05
3.37877e-05
3.39569e-05
3.41009e-05
3.41194e-05
3.40477e-05
3.38722e-05
3.37163e-05
3.33913e-05
3.29524e-05
3.23147e-05
3.17956e-05
3.13696e-05
3.12409e-05
3.11168e-05
3.11122e-05
3.0914e-05
3.07742e-05
3.04226e-05
3.02046e-05
2.98199e-05
2.96091e-05
2.92015e-05
2.89384e-05
2.84311e-05
2.80685e-05
2.74668e-05
2.70152e-05
2.62762e-05
2.56359e-05
2.46902e-05
2.38858e-05
2.29348e-05
2.23137e-05
2.17147e-05
2.15719e-05
2.15441e-05
2.1988e-05
2.24262e-05
2.33588e-05
2.4186e-05
2.56894e-05
2.7279e-05
2.87273e-05
2.82913e-05
3.14324e-05
3.9353e-05
4.64727e-05
5.1581e-05
5.54749e-05
5.31806e-05
5.23689e-05
4.95465e-05
3.60415e-05
1.9205e-05
5.93144e-06
9.77557e-07
1.51875e-07
8.06097e-08
3.73488e-08
3.02292e-08
3.00505e-08
2.99432e-08
2.94867e-08
2.93586e-08
2.87513e-08
2.88824e-08
2.82968e-08
2.88364e-08
2.81657e-08
2.83153e-08
2.8267e-08
2.81077e-08
2.81369e-08
2.82711e-08
2.82073e-08
2.82238e-08
2.82491e-08
2.81553e-08
2.81006e-08
2.82384e-08
2.82801e-08
2.82177e-08
2.88779e-08
2.8337e-08
2.88327e-08
2.87024e-08
2.9258e-08
2.93011e-08
2.96203e-08
2.85253e-08
2.58466e-08
2.65595e-08
2.899e-08
9.97288e-09
2.53343e-08
9.33454e-07
5.18756e-06
1.64601e-05
2.85474e-05
2.62943e-05
2.04417e-05
2.03481e-05
1.7942e-05
1.71065e-05
1.63459e-05
1.55758e-05
1.5111e-05
1.43881e-05
1.39423e-05
1.31753e-05
1.2698e-05
1.19351e-05
1.14603e-05
1.08004e-05
1.0413e-05
9.99727e-06
9.85972e-06
9.89694e-06
1.02584e-05
1.09996e-05
1.20657e-05
1.35827e-05
1.52687e-05
1.72965e-05
1.92711e-05
2.14902e-05
2.35531e-05
2.58559e-05
2.79624e-05
3.03201e-05
3.23224e-05
3.4409e-05
3.58176e-05
3.7072e-05
3.74904e-05
3.77454e-05
3.72314e-05
3.66107e-05
3.54243e-05
3.43462e-05
3.30275e-05
3.21468e-05
3.15037e-05
3.16297e-05
3.1999e-05
3.28111e-05
3.31933e-05
3.31488e-05
3.26638e-05
3.26956e-05
3.38547e-05
3.63561e-05
3.84191e-05
3.86339e-05
3.68949e-05
3.56657e-05
3.74539e-05
4.17643e-05
4.34989e-05
4.01202e-05
3.62655e-05
3.81463e-05
4.34196e-05
4.30378e-05
3.72271e-05
3.58452e-05
4.03763e-05
4.11023e-05
3.60316e-05
3.44554e-05
3.8077e-05
3.74458e-05
3.3015e-05
3.41498e-05
3.60636e-05
3.24891e-05
3.17813e-05
3.34482e-05
3.11602e-05
3.02817e-05
3.1304e-05
2.91441e-05
2.88415e-05
2.84162e-05
2.74609e-05
2.6737e-05
2.66749e-05
2.55645e-05
2.55208e-05
2.45325e-05
2.41427e-05
2.33608e-05
2.28144e-05
2.20838e-05
2.1476e-05
2.07867e-05
2.02153e-05
1.95485e-05
1.901e-05
1.84448e-05
1.79253e-05
1.73481e-05
1.68844e-05
1.62805e-05
1.57863e-05
1.52188e-05
1.4688e-05
1.41109e-05
1.35378e-05
1.29607e-05
1.23906e-05
1.18232e-05
1.12571e-05
1.06139e-05
9.98787e-06
9.28805e-06
8.6104e-06
7.87703e-06
7.11599e-06
6.28746e-06
5.46392e-06
4.6301e-06
3.84509e-06
3.1043e-06
2.44781e-06
1.84558e-06
1.31277e-06
7.60082e-07
4.04756e-07
2.01557e-07
1.36125e-07
7.13675e-08
5.19543e-08
3.90325e-08
4.34579e-08
3.27052e-08
3.12287e-08
2.68628e-08
2.71891e-08
2.39355e-08
3.04004e-08
3.01767e-08
3.74808e-08
1.95386e-08
3.16039e-08
3.71629e-08
4.05093e-08
1.71273e-08
3.22093e-08
4.07097e-08
6.87217e-08
7.06405e-08
7.37364e-08
4.3274e-08
2.54692e-08
2.35371e-08
4.77044e-08
3.45041e-08
4.15052e-08
2.70072e-08
1.53526e-08
1.80202e-08
1.80843e-08
1.23254e-08
1.67594e-08
1.13298e-08
1.32467e-08
1.03131e-08
1.42408e-08
6.52981e-09
1.16861e-08
1.42631e-08
1.77714e-08
8.8159e-09
1.94079e-08
2.08938e-08
3.18187e-08
2.30211e-08
5.15378e-08
5.92369e-08
1.18676e-07
1.80125e-07
4.22725e-07
6.4765e-07
1.10194e-06
1.58987e-06
2.25533e-06
2.97546e-06
3.94674e-06
4.88785e-06
5.91604e-06
6.89068e-06
8.05919e-06
9.12525e-06
1.02982e-05
1.13217e-05
1.23599e-05
1.32959e-05
1.42781e-05
1.51249e-05
1.60288e-05
1.68018e-05
1.76307e-05
1.83372e-05
1.91062e-05
1.97574e-05
2.05054e-05
2.10674e-05
2.18157e-05
2.2356e-05
2.30862e-05
2.36414e-05
2.43499e-05
2.48793e-05
2.55631e-05
2.60255e-05
2.66987e-05
2.71271e-05
2.77919e-05
2.84337e-05
2.86268e-05
2.96849e-05
2.98545e-05
2.99478e-05
3.22482e-05
3.01559e-05
3.39075e-05
3.50684e-05
3.43616e-05
3.70345e-05
4.1288e-05
4.33163e-05
4.34802e-05
4.27025e-05
4.17674e-05
4.08444e-05
4.02174e-05
3.94212e-05
3.93155e-05
3.86193e-05
3.86796e-05
3.81178e-05
3.81481e-05
3.79964e-05
3.74094e-05
3.80863e-05
3.77097e-05
3.73897e-05
3.71199e-05
3.76202e-05
3.66468e-05
3.75292e-05
3.7788e-05
3.76452e-05
3.79609e-05
3.93119e-05
3.90744e-05
3.90308e-05
4.03237e-05
4.12426e-05
4.04447e-05
4.13783e-05
4.2736e-05
4.26551e-05
4.25301e-05
4.35108e-05
4.42341e-05
4.44053e-05
4.46294e-05
4.5044e-05
4.54633e-05
4.57271e-05
4.58303e-05
4.57697e-05
4.56943e-05
4.54143e-05
4.49318e-05
4.41665e-05
4.34553e-05
4.28757e-05
4.26608e-05
4.2557e-05
4.25969e-05
4.24706e-05
4.23353e-05
4.19835e-05
4.16826e-05
4.12408e-05
4.09048e-05
4.04257e-05
4.00188e-05
3.94238e-05
3.88849e-05
3.81635e-05
3.75055e-05
3.66331e-05
3.57817e-05
3.46899e-05
3.36402e-05
3.24449e-05
3.14441e-05
3.04609e-05
2.98505e-05
2.94323e-05
2.95325e-05
2.98419e-05
3.06906e-05
3.16774e-05
3.32726e-05
3.50104e-05
3.72183e-05
3.828e-05
3.97665e-05
4.32668e-05
5.0249e-05
5.66194e-05
6.35162e-05
6.44719e-05
6.38338e-05
5.57125e-05
3.51966e-05
1.70383e-05
6.68235e-06
1.31376e-06
1.07442e-08
1.8465e-08
3.6311e-08
3.06324e-08
2.91302e-08
2.9582e-08
2.93541e-08
2.93662e-08
2.87599e-08
2.88849e-08
2.83642e-08
2.88821e-08
2.82149e-08
2.82711e-08
2.8299e-08
2.81147e-08
2.82194e-08
2.83492e-08
2.82844e-08
2.82594e-08
2.84132e-08
2.82224e-08
2.81805e-08
2.83105e-08
2.82709e-08
2.82095e-08
2.88989e-08
2.82753e-08
2.89718e-08
2.8728e-08
2.939e-08
2.94139e-08
3.00359e-08
3.09678e-08
3.1117e-08
2.74694e-08
3.57217e-08
5.61976e-08
2.40973e-08
8.22272e-08
2.21036e-06
9.80436e-06
2.00866e-05
1.95482e-05
1.43177e-05
1.47178e-05
1.30614e-05
1.24463e-05
1.20627e-05
1.13867e-05
1.11309e-05
1.03448e-05
1.00445e-05
9.19463e-06
8.88633e-06
8.10449e-06
7.91019e-06
7.41516e-06
7.54814e-06
7.62e-06
8.3351e-06
9.18629e-06
1.05803e-05
1.21291e-05
1.39892e-05
1.59191e-05
1.7991e-05
2.01308e-05
2.23992e-05
2.48144e-05
2.73541e-05
3.00319e-05
3.27132e-05
3.54591e-05
3.79167e-05
4.01773e-05
4.17811e-05
4.2945e-05
4.32896e-05
4.32153e-05
4.23946e-05
4.12923e-05
3.97125e-05
3.81888e-05
3.6698e-05
3.57694e-05
3.54171e-05
3.59784e-05
3.67902e-05
3.77869e-05
3.80191e-05
3.76622e-05
3.71519e-05
3.76772e-05
3.98173e-05
4.30328e-05
4.49482e-05
4.43407e-05
4.20265e-05
4.12836e-05
4.45381e-05
4.96751e-05
5.04238e-05
4.53751e-05
4.12651e-05
4.47768e-05
5.09204e-05
4.89101e-05
4.13518e-05
4.06656e-05
4.65474e-05
4.61919e-05
3.93553e-05
3.81811e-05
4.27723e-05
4.09035e-05
3.53663e-05
3.73805e-05
3.91423e-05
3.42136e-05
3.37941e-05
3.5624e-05
3.22882e-05
3.13421e-05
3.23856e-05
2.9478e-05
2.92134e-05
2.84945e-05
2.7157e-05
2.62478e-05
2.6042e-05
2.45756e-05
2.44899e-05
2.31463e-05
2.26429e-05
2.16006e-05
2.08943e-05
1.99462e-05
1.91589e-05
1.8294e-05
1.75508e-05
1.67202e-05
1.60125e-05
1.53142e-05
1.46331e-05
1.39293e-05
1.33021e-05
1.25747e-05
1.19056e-05
1.1197e-05
1.05025e-05
9.73732e-06
8.97651e-06
8.16245e-06
7.3826e-06
6.58009e-06
5.83234e-06
4.96328e-06
4.20072e-06
3.37781e-06
2.7434e-06
2.10754e-06
1.57909e-06
9.89115e-07
5.89923e-07
2.85398e-07
1.73009e-07
7.29634e-08
5.42679e-08
4.56268e-08
5.24809e-08
2.71398e-08
5.29216e-08
3.11588e-08
4.25591e-08
3.19654e-08
3.71851e-08
2.89531e-08
3.79513e-08
3.02574e-08
4.49257e-08
3.81743e-08
5.37694e-08
4.30197e-08
5.87029e-08
3.89882e-08
6.10672e-08
3.83999e-08
6.11543e-08
3.48265e-08
6.68737e-08
5.74865e-08
6.62781e-08
3.2003e-08
3.28408e-08
2.52002e-08
2.26098e-08
4.86346e-08
8.83667e-08
6.89204e-08
6.96934e-08
4.55911e-08
5.43772e-08
6.60821e-08
4.83739e-08
5.55393e-08
4.19454e-08
4.33965e-08
3.63171e-08
3.42428e-08
2.85375e-08
2.87267e-08
2.41073e-08
2.18189e-08
1.81055e-08
1.77248e-08
1.52707e-08
1.29404e-08
1.25393e-08
1.14068e-08
1.24955e-08
1.15091e-08
1.19238e-08
1.31426e-08
1.04797e-08
1.52742e-08
1.30457e-08
1.70232e-08
2.18441e-08
2.17721e-08
3.50381e-08
4.27603e-08
8.55943e-08
1.74445e-07
3.47205e-07
4.8887e-07
9.65696e-07
1.38356e-06
2.04612e-06
2.62619e-06
3.34198e-06
4.07431e-06
4.99407e-06
5.88867e-06
6.96111e-06
8.01834e-06
9.20287e-06
1.03085e-05
1.1481e-05
1.25445e-05
1.37079e-05
1.46504e-05
1.5759e-05
1.66377e-05
1.7652e-05
1.85112e-05
1.94488e-05
2.02602e-05
2.11482e-05
2.18699e-05
2.2719e-05
2.34038e-05
2.42383e-05
2.51974e-05
2.55278e-05
2.67928e-05
2.73514e-05
2.72722e-05
3.03301e-05
2.8745e-05
3.27607e-05
3.40217e-05
3.35625e-05
3.65144e-05
4.1355e-05
4.39141e-05
4.44994e-05
4.39795e-05
4.33141e-05
4.25168e-05
4.21424e-05
4.13868e-05
4.15771e-05
4.09432e-05
4.1243e-05
4.07504e-05
4.09189e-05
4.11294e-05
4.04736e-05
4.13225e-05
4.10705e-05
4.08914e-05
4.06283e-05
4.15304e-05
4.03143e-05
4.13618e-05
4.2073e-05
4.21276e-05
4.23826e-05
4.4298e-05
4.44474e-05
4.43073e-05
4.58478e-05
4.75641e-05
4.68045e-05
4.77251e-05
4.97158e-05
5.01248e-05
5.00044e-05
5.12163e-05
5.24343e-05
5.29769e-05
5.34217e-05
5.40784e-05
5.47967e-05
5.53674e-05
5.57321e-05
5.58679e-05
5.59407e-05
5.57909e-05
5.53885e-05
5.46271e-05
5.382e-05
5.31099e-05
5.27793e-05
5.26455e-05
5.27099e-05
5.26599e-05
5.25778e-05
5.22698e-05
5.19475e-05
5.14731e-05
5.10542e-05
5.05066e-05
4.99986e-05
4.93292e-05
4.86814e-05
4.78762e-05
4.7098e-05
4.61443e-05
4.51906e-05
4.40337e-05
4.28769e-05
4.15657e-05
4.035e-05
3.90948e-05
3.80805e-05
3.71851e-05
3.67367e-05
3.65535e-05
3.69449e-05
3.76454e-05
3.89896e-05
4.06266e-05
4.28516e-05
4.47299e-05
4.70478e-05
4.95613e-05
5.2632e-05
5.88361e-05
6.66531e-05
6.99508e-05
7.18034e-05
6.37032e-05
4.15399e-05
1.35882e-05
4.81887e-06
1.6518e-06
9.39577e-08
6.11918e-09
1.79686e-08
3.02316e-08
3.03367e-08
2.98408e-08
2.94691e-08
2.93466e-08
2.87271e-08
2.89236e-08
2.83378e-08
2.8817e-08
2.81829e-08
2.82891e-08
2.82631e-08
2.80887e-08
2.81533e-08
2.82686e-08
2.81618e-08
2.82366e-08
2.82534e-08
2.81793e-08
2.80646e-08
2.82016e-08
2.82932e-08
2.81657e-08
2.88984e-08
2.83206e-08
2.88708e-08
2.87587e-08
2.92607e-08
2.93005e-08
2.95302e-08
2.97248e-08
3.19575e-08
3.0961e-08
2.40811e-08
6.12247e-08
1.91642e-07
8.69467e-08
3.32284e-07
3.67355e-06
1.06949e-05
1.16684e-05
7.3115e-06
7.69745e-06
6.61912e-06
6.12601e-06
5.99664e-06
5.47541e-06
5.45351e-06
4.85628e-06
4.8763e-06
4.38106e-06
4.62211e-06
4.49527e-06
5.16287e-06
5.61525e-06
6.78987e-06
7.8112e-06
9.32719e-06
1.07034e-05
1.23586e-05
1.39198e-05
1.57223e-05
1.75417e-05
1.97e-05
2.19334e-05
2.45741e-05
2.7274e-05
3.03046e-05
3.3278e-05
3.63833e-05
3.93003e-05
4.19768e-05
4.41619e-05
4.5751e-05
4.6623e-05
4.67415e-05
4.62256e-05
4.50422e-05
4.34504e-05
4.15565e-05
3.9747e-05
3.83401e-05
3.76764e-05
3.79283e-05
3.91037e-05
4.02969e-05
4.12422e-05
4.11123e-05
4.04718e-05
4.02338e-05
4.16107e-05
4.48029e-05
4.82851e-05
4.95095e-05
4.79215e-05
4.54165e-05
4.57255e-05
5.04815e-05
5.56778e-05
5.48098e-05
4.83282e-05
4.47274e-05
5.00388e-05
5.62382e-05
5.21084e-05
4.33217e-05
4.3893e-05
5.07274e-05
4.87036e-05
4.03942e-05
4.01095e-05
4.53506e-05
4.18591e-05
3.56185e-05
3.86705e-05
3.98652e-05
3.36895e-05
3.38268e-05
3.55743e-05
3.11675e-05
3.03463e-05
3.12923e-05
2.76966e-05
2.75759e-05
2.65353e-05
2.48613e-05
2.38459e-05
2.34862e-05
2.17336e-05
2.16398e-05
1.99844e-05
1.94183e-05
1.81474e-05
1.73227e-05
1.61869e-05
1.52418e-05
1.42273e-05
1.33222e-05
1.23501e-05
1.14717e-05
1.06487e-05
9.78321e-06
8.93487e-06
8.09478e-06
7.19698e-06
6.3001e-06
5.43825e-06
4.58942e-06
3.75774e-06
2.99229e-06
2.29048e-06
1.71436e-06
1.20873e-06
8.86305e-07
3.89369e-07
2.78314e-07
8.84121e-08
9.90689e-08
3.2349e-08
6.12801e-08
2.10541e-08
4.40757e-08
2.20741e-08
4.50395e-08
2.84287e-08
3.53813e-08
2.99498e-08
3.16695e-08
2.43598e-08
3.56635e-08
2.38222e-08
3.51399e-08
2.82637e-08
3.63932e-08
3.34013e-08
3.95303e-08
3.25556e-08
3.77503e-08
2.78609e-08
3.41295e-08
2.28776e-08
3.20545e-08
2.23138e-08
3.41246e-08
2.58455e-08
3.85041e-08
2.93244e-08
3.1888e-08
2.39859e-08
3.14687e-08
4.7733e-08
5.53421e-08
6.85222e-08
7.14655e-08
4.42452e-08
2.36121e-08
2.87446e-08
4.73461e-08
3.17075e-08
3.54966e-08
2.68977e-08
2.73547e-08
2.98521e-08
1.84816e-08
2.34255e-08
1.63183e-08
1.94496e-08
1.35159e-08
1.63489e-08
1.29103e-08
1.56944e-08
1.29937e-08
1.61497e-08
1.40305e-08
1.76662e-08
1.46834e-08
1.80438e-08
1.36626e-08
1.90545e-08
1.29136e-08
2.1029e-08
1.24306e-08
2.06389e-08
1.20854e-08
1.81594e-08
1.16437e-08
1.7951e-08
1.03179e-08
1.81839e-08
9.08027e-09
1.20596e-08
1.31599e-08
9.81062e-09
1.81799e-08
2.18274e-08
2.49575e-08
4.40165e-08
6.62434e-08
1.00535e-07
1.84812e-07
3.64763e-07
6.17716e-07
9.97848e-07
1.60914e-06
2.27124e-06
3.01132e-06
3.77318e-06
4.79096e-06
5.75666e-06
6.99787e-06
8.1924e-06
9.50563e-06
1.08167e-05
1.20608e-05
1.3299e-05
1.44094e-05
1.54893e-05
1.64777e-05
1.74882e-05
1.84391e-05
1.97583e-05
2.02522e-05
2.16638e-05
2.26788e-05
2.24678e-05
2.60114e-05
2.53335e-05
2.93687e-05
3.05417e-05
3.05006e-05
3.36945e-05
3.87286e-05
4.14437e-05
4.22813e-05
4.19697e-05
4.16649e-05
4.1059e-05
4.10702e-05
4.04338e-05
4.10132e-05
4.05436e-05
4.11393e-05
4.08204e-05
4.11167e-05
4.18123e-05
4.11656e-05
4.21432e-05
4.20805e-05
4.21053e-05
4.17991e-05
4.31989e-05
4.18343e-05
4.28734e-05
4.40843e-05
4.4507e-05
4.45979e-05
4.69711e-05
4.77333e-05
4.75311e-05
4.90608e-05
5.16596e-05
5.12105e-05
5.19301e-05
5.44122e-05
5.55321e-05
5.55243e-05
5.68244e-05
5.85078e-05
5.95324e-05
6.02702e-05
6.11684e-05
6.21829e-05
6.30939e-05
6.37876e-05
6.41952e-05
6.44819e-05
6.45318e-05
6.43096e-05
6.36787e-05
6.28947e-05
6.21217e-05
6.16793e-05
6.14772e-05
6.15278e-05
6.15358e-05
6.15226e-05
6.12933e-05
6.10003e-05
6.05322e-05
6.00683e-05
5.94738e-05
5.88906e-05
5.81641e-05
5.74413e-05
5.65805e-05
5.5729e-05
5.47325e-05
5.37269e-05
5.25519e-05
5.13602e-05
5.00151e-05
4.87058e-05
4.73139e-05
4.60492e-05
4.48073e-05
4.38582e-05
4.30977e-05
4.28316e-05
4.29121e-05
4.36563e-05
4.48622e-05
4.67317e-05
4.8796e-05
5.13697e-05
5.39058e-05
5.65802e-05
5.99395e-05
6.6264e-05
7.03288e-05
7.50425e-05
7.26773e-05
5.53881e-05
2.08437e-05
3.21589e-06
5.72114e-07
3.80991e-07
1.19606e-07
3.20238e-08
2.70957e-08
2.91906e-08
2.97354e-08
2.93529e-08
2.94434e-08
2.87382e-08
2.88865e-08
2.84334e-08
2.88628e-08
2.82298e-08
2.82623e-08
2.8284e-08
2.81087e-08
2.82194e-08
2.83583e-08
2.82773e-08
2.82585e-08
2.83495e-08
2.8231e-08
2.81868e-08
2.83052e-08
2.82754e-08
2.81946e-08
2.88964e-08
2.83773e-08
2.88928e-08
2.86761e-08
2.92882e-08
2.92549e-08
2.96552e-08
2.93009e-08
2.96764e-08
3.41898e-08
3.66224e-08
1.15013e-08
5.61002e-10
8.42249e-10
9.92454e-12
2.14248e-08
2.62169e-06
4.02169e-06
1.25514e-06
1.35066e-06
8.29941e-07
2.83101e-07
6.32963e-07
5.32211e-07
1.42438e-06
1.56437e-06
2.56482e-06
3.01653e-06
4.09256e-06
4.84773e-06
5.92661e-06
6.7754e-06
7.91283e-06
8.79126e-06
1.0025e-05
1.1137e-05
1.25993e-05
1.40931e-05
1.59694e-05
1.79329e-05
2.0412e-05
2.28804e-05
2.59736e-05
2.89205e-05
3.23244e-05
3.54213e-05
3.87506e-05
4.16197e-05
4.43011e-05
4.6195e-05
4.76069e-05
4.80348e-05
4.78048e-05
4.67856e-05
4.52181e-05
4.31943e-05
4.11283e-05
3.92862e-05
3.82887e-05
3.82593e-05
3.9363e-05
4.11666e-05
4.24751e-05
4.30714e-05
4.24681e-05
4.1759e-05
4.21931e-05
4.46983e-05
4.8744e-05
5.19009e-05
5.20324e-05
4.95626e-05
4.7382e-05
4.91731e-05
5.51403e-05
5.95874e-05
5.67586e-05
4.92897e-05
4.68846e-05
5.3883e-05
5.93075e-05
5.28164e-05
4.34146e-05
4.56579e-05
5.29152e-05
4.8774e-05
3.94005e-05
4.04043e-05
4.5882e-05
4.05017e-05
3.40141e-05
3.8158e-05
3.83921e-05
3.11589e-05
3.2071e-05
3.34764e-05
2.80515e-05
2.75492e-05
2.82789e-05
2.40883e-05
2.42151e-05
2.28316e-05
2.08922e-05
1.98485e-05
1.93288e-05
1.7372e-05
1.72983e-05
1.53789e-05
1.47857e-05
1.33064e-05
1.23798e-05
1.1056e-05
9.91032e-06
8.68981e-06
7.53103e-06
6.38225e-06
5.30977e-06
4.4865e-06
3.54378e-06
2.91e-06
2.12861e-06
1.6589e-06
8.9782e-07
7.54259e-07
2.5527e-07
2.51942e-07
4.06287e-08
1.66316e-07
8.12939e-09
1.23311e-07
1.64937e-08
6.37473e-08
2.30126e-08
5.34957e-08
2.16416e-08
5.52627e-08
2.03413e-08
5.68585e-08
1.88951e-08
5.31565e-08
1.70155e-08
4.7498e-08
1.79814e-08
4.95906e-08
2.42876e-08
4.77778e-08
2.81836e-08
4.29444e-08
3.08267e-08
3.98163e-08
2.99545e-08
3.47785e-08
2.89478e-08
3.42909e-08
3.2964e-08
3.79509e-08
3.76148e-08
4.28154e-08
4.40446e-08
4.81434e-08
4.37081e-08
4.45838e-08
3.91313e-08
4.59849e-08
4.64481e-08
5.73722e-08
4.71982e-08
3.90049e-08
3.08219e-08
2.80902e-08
3.1944e-08
4.55657e-08
7.77585e-08
5.97231e-08
6.55179e-08
5.06507e-08
6.2824e-08
5.74002e-08
5.47223e-08
4.7034e-08
3.6666e-08
3.89523e-08
2.93898e-08
3.24832e-08
2.32368e-08
2.46576e-08
1.82595e-08
1.94026e-08
1.39009e-08
1.5967e-08
1.08267e-08
1.43421e-08
9.74601e-09
1.4805e-08
8.73844e-09
1.54455e-08
7.5952e-09
1.65367e-08
6.90705e-09
1.95704e-08
7.09372e-09
2.29291e-08
7.4703e-09
2.46517e-08
8.39074e-09
2.53802e-08
1.3711e-08
2.22092e-08
2.06247e-08
1.74762e-08
1.72606e-08
2.36546e-08
1.1498e-08
2.91622e-08
9.93285e-09
3.03259e-08
1.04603e-08
3.19833e-08
1.87876e-08
3.08837e-08
2.44236e-08
5.94468e-08
4.88985e-08
1.04241e-07
1.86001e-07
4.36063e-07
6.91191e-07
1.39109e-06
1.94242e-06
2.93637e-06
3.71314e-06
4.96533e-06
5.94448e-06
7.22477e-06
8.24904e-06
9.63479e-06