/*--------------------------------*- C++ -*----------------------------------*\
| =========                 |                                                 |
| \\      /  F ield         | OpenFOAM: The Open Source CFD Toolbox           |
|  \\    /   O peration     | Version:  v2006                                 |
|   \\  /    A nd           | Website:  www.openfoam.com                      |
|    \\/     M anipulation  |                                                 |
\*---------------------------------------------------------------------------*/
FoamFile
{
    version     2.0;
    format      ascii;
    class       volScalarField;
    location    "60";
    object      nuTilda;
}
// * * * * * * * * * * * * * * * * * * * * * * * * * * * * * * * * * * * * * //

dimensions      [0 2 -1 0 0 0 0];


internalField   nonuniform List<scalar> 
93840
(
3.97865e-07
3.9788e-07
3.97864e-07
3.97949e-07
3.97983e-07
3.97991e-07
3.98106e-07
3.98071e-07
3.98164e-07
3.9832e-07
3.98739e-07
3.99577e-07
4.0006e-07
4.01591e-07
4.03586e-07
4.03017e-07
3.97258e-07
3.91623e-07
3.74566e-07
9.21994e-07
4.23448e-06
1.4254e-05
3.27602e-05
4.41741e-05
3.62894e-05
2.5326e-05
2.10263e-05
1.69417e-05
1.56909e-05
1.48056e-05
1.35691e-05
1.28078e-05
1.29395e-05
1.24831e-05
1.23764e-05
1.23362e-05
1.20207e-05
1.21086e-05
1.17565e-05
1.18625e-05
1.15477e-05
1.16401e-05
1.13605e-05
1.14298e-05
1.11916e-05
1.1238e-05
1.105e-05
1.11005e-05
1.09668e-05
1.10221e-05
1.09559e-05
1.1038e-05
1.09993e-05
1.10705e-05
1.11057e-05
1.12214e-05
1.12156e-05
1.12484e-05
1.11878e-05
1.11918e-05
1.11643e-05
1.11279e-05
1.10455e-05
1.10192e-05
1.09497e-05
1.08904e-05
1.08323e-05
1.08107e-05
1.07662e-05
1.07665e-05
1.07777e-05
1.08064e-05
1.08288e-05
1.08551e-05
1.085e-05
1.08881e-05
1.09725e-05
1.11025e-05
1.12116e-05
1.12277e-05
1.11869e-05
1.12198e-05
1.13953e-05
1.16016e-05
1.16174e-05
1.15186e-05
1.15731e-05
1.18271e-05
1.19715e-05
1.18702e-05
1.18609e-05
1.21068e-05
1.23139e-05
1.22875e-05
1.23081e-05
1.25735e-05
1.27572e-05
1.27425e-05
1.29056e-05
1.31883e-05
1.32631e-05
1.339e-05
1.36614e-05
1.39607e-05
1.42735e-05
1.44243e-05
1.44393e-05
1.47176e-05
1.50148e-05
1.53056e-05
1.55831e-05
1.591e-05
1.61746e-05
1.65595e-05
1.68595e-05
1.72073e-05
1.74933e-05
1.78687e-05
1.81552e-05
1.84847e-05
1.87289e-05
1.90436e-05
1.91921e-05
1.94007e-05
1.94015e-05
1.93704e-05
1.95047e-05
1.92611e-05
1.93746e-05
1.92327e-05
1.91336e-05
1.9026e-05
1.8912e-05
1.88377e-05
1.87617e-05
1.86549e-05
1.85408e-05
1.84702e-05
1.83719e-05
1.83399e-05
1.82718e-05
1.82082e-05
1.80912e-05
1.80516e-05
1.79689e-05
1.79385e-05
1.78639e-05
1.78259e-05
1.77113e-05
1.76468e-05
1.75368e-05
1.74758e-05
1.73455e-05
1.72429e-05
1.70985e-05
1.69799e-05
1.68044e-05
1.66509e-05
1.64441e-05
1.62549e-05
1.60543e-05
1.58668e-05
1.56097e-05
1.53549e-05
1.5043e-05
1.4699e-05
1.42263e-05
1.35748e-05
1.25669e-05
1.1164e-05
1.01506e-05
1.0529e-05
9.59154e-06
4.45154e-06
2.06075e-07
9.81847e-07
2.10919e-06
1.1269e-06
7.29256e-07
6.66887e-07
5.63944e-07
6.38048e-07
4.1529e-07
6.88969e-07
1.34325e-06
8.60697e-07
1.41872e-07
6.9368e-06
7.71577e-06
7.14165e-07
9.1985e-06
1.97187e-05
2.06827e-05
2.0497e-05
2.39847e-05
2.72444e-05
2.92435e-05
3.00014e-05
3.04005e-05
3.04675e-05
3.03852e-05
3.02484e-05
3.00969e-05
2.99523e-05
2.98164e-05
2.9643e-05
2.947e-05
2.92723e-05
2.90743e-05
2.88601e-05
2.8687e-05
2.85101e-05
2.83548e-05
2.81827e-05
2.80162e-05
2.78197e-05
2.76422e-05
2.74777e-05
2.73178e-05
2.71496e-05
2.721e-05
2.70691e-05
2.68982e-05
2.67271e-05
2.6549e-05
2.63563e-05
2.61686e-05
2.59929e-05
2.58104e-05
2.56201e-05
2.55298e-05
2.55546e-05
2.55668e-05
2.5567e-05
2.55594e-05
2.54152e-05
2.5291e-05
2.51394e-05
2.50396e-05
2.49396e-05
2.48852e-05
2.48353e-05
2.48149e-05
2.48025e-05
2.47508e-05
2.46803e-05
2.46153e-05
2.45617e-05
2.40706e-05
2.35521e-05
2.11989e-05
1.70327e-05
1.52884e-05
1.52376e-05
1.56339e-05
1.60597e-05
1.62763e-05
1.63061e-05
1.62065e-05
1.60148e-05
1.57791e-05
1.55086e-05
1.5244e-05
1.49763e-05
1.4681e-05
1.43937e-05
1.41169e-05
1.38145e-05
1.33346e-05
1.28532e-05
1.27591e-05
1.2586e-05
1.22162e-05
1.17394e-05
1.15243e-05
1.13288e-05
1.11436e-05
1.07917e-05
1.04924e-05
1.02497e-05
1.00309e-05
9.72826e-06
9.47553e-06
9.26506e-06
8.99823e-06
8.69756e-06
8.50894e-06
8.296e-06
8.02466e-06
7.78913e-06
7.59624e-06
7.37248e-06
7.13733e-06
6.92204e-06
6.71492e-06
6.50601e-06
6.29625e-06
6.0821e-06
5.87029e-06
5.66001e-06
5.44987e-06
5.22773e-06
5.00884e-06
4.78622e-06
4.5897e-06
4.39693e-06
4.23432e-06
4.05357e-06
3.89956e-06
3.72598e-06
3.58508e-06
3.41215e-06
3.28933e-06
3.11563e-06
3.00995e-06
2.81972e-06
2.72358e-06
2.51736e-06
2.43545e-06
2.25027e-06
2.17597e-06
2.07164e-06
1.9971e-06
1.93105e-06
1.88253e-06
1.86272e-06
1.84801e-06
1.85332e-06
1.90312e-06
1.96835e-06
2.03799e-06
2.23161e-06
2.32252e-06
2.71545e-06
3.70128e-06
3.33801e-06
8.97048e-06
1.41837e-05
1.93526e-05
2.17179e-05
2.35574e-05
2.4793e-05
2.45512e-05
3.56091e-05
4.50787e-05
3.5099e-05
1.54287e-05
4.3449e-06
1.13194e-06
3.82413e-07
3.63336e-07
3.95369e-07
3.92397e-07
3.96408e-07
4.00327e-07
3.99822e-07
3.99146e-07
3.98709e-07
3.98337e-07
3.98312e-07
3.98144e-07
3.98048e-07
3.97983e-07
3.97871e-07
3.97866e-07
3.97739e-07
3.97809e-07
3.97802e-07
3.9778e-07
3.97822e-07
3.97815e-07
3.97848e-07
3.97881e-07
3.97968e-07
3.98026e-07
3.98028e-07
3.98063e-07
3.98017e-07
3.98654e-07
3.99131e-07
3.9988e-07
4.00049e-07
3.99499e-07
4.04388e-07
4.06349e-07
4.27967e-07
5.42343e-07
8.5117e-07
2.88854e-06
1.14485e-05
2.87966e-05
4.12913e-05
3.58864e-05
2.77329e-05
2.48022e-05
1.99357e-05
1.72035e-05
1.56228e-05
1.42795e-05
1.37394e-05
1.31756e-05
1.30628e-05
1.2895e-05
1.24968e-05
1.25268e-05
1.1964e-05
1.21108e-05
1.14501e-05
1.16837e-05
1.09887e-05
1.12969e-05
1.06292e-05
1.10331e-05
1.04724e-05
1.10252e-05
1.06845e-05
1.14702e-05
1.14661e-05
1.2516e-05
1.28242e-05
1.39772e-05
1.43667e-05
1.53914e-05
1.57246e-05
1.65773e-05
1.67877e-05
1.73836e-05
1.73685e-05
1.76925e-05
1.75401e-05
1.7619e-05
1.73021e-05
1.7257e-05
1.68863e-05
1.67419e-05
1.64587e-05
1.64511e-05
1.63801e-05
1.65844e-05
1.67041e-05
1.68506e-05
1.67821e-05
1.675e-05
1.68191e-05
1.73469e-05
1.80002e-05
1.8415e-05
1.82105e-05
1.78114e-05
1.78997e-05
1.89015e-05
1.97654e-05
1.94133e-05
1.84646e-05
1.85539e-05
1.99167e-05
2.0386e-05
1.92972e-05
1.87185e-05
1.97819e-05
2.04459e-05
1.95246e-05
1.89537e-05
1.99218e-05
2.02444e-05
1.92398e-05
1.94042e-05
2.02619e-05
1.9607e-05
1.93489e-05
2.00096e-05
1.9673e-05
1.94816e-05
2.00036e-05
1.95913e-05
1.95847e-05
1.96673e-05
1.95936e-05
1.9518e-05
1.96985e-05
1.95459e-05
1.96963e-05
1.95823e-05
1.96171e-05
1.95335e-05
1.95094e-05
1.94022e-05
1.93336e-05
1.91888e-05
1.90944e-05
1.89033e-05
1.87819e-05
1.85678e-05
1.84395e-05
1.82139e-05
1.80534e-05
1.78594e-05
1.76452e-05
1.74684e-05
1.72596e-05
1.70752e-05
1.68709e-05
1.66722e-05
1.64772e-05
1.62844e-05
1.61024e-05
1.58988e-05
1.57097e-05
1.54947e-05
1.52969e-05
1.50865e-05
1.48913e-05
1.46664e-05
1.44568e-05
1.42123e-05
1.39758e-05
1.37114e-05
1.3472e-05
1.31961e-05
1.29222e-05
1.26032e-05
1.22994e-05
1.19423e-05
1.15637e-05
1.11123e-05
1.06383e-05
1.00846e-05
9.49746e-06
8.77455e-06
7.91814e-06
6.9366e-06
6.04112e-06
5.38586e-06
4.8639e-06
3.93727e-06
2.49907e-06
1.15321e-06
6.47629e-07
9.58545e-07
1.42198e-06
1.1645e-06
3.33202e-07
4.20965e-07
4.70847e-07
4.29796e-07
2.43196e-07
3.72632e-07
3.44436e-07
2.90451e-07
4.08071e-07
3.78799e-07
3.60707e-07
2.1408e-07
3.4624e-07
1.78161e-07
3.13358e-07
3.04299e-07
3.84363e-07
8.50524e-07
2.87104e-06
2.88778e-06
1.51475e-06
2.16758e-06
4.82581e-06
7.4544e-06
8.31721e-06
8.78055e-06
1.00698e-05
1.20731e-05
1.40104e-05
1.55294e-05
1.67827e-05
1.79121e-05
1.88604e-05
1.96729e-05
2.03244e-05
2.08546e-05
2.12857e-05
2.16426e-05
2.19391e-05
2.21879e-05
2.24073e-05
2.26046e-05
2.27747e-05
2.2933e-05
2.30712e-05
2.31915e-05
2.33097e-05
2.33962e-05
2.35167e-05
2.36192e-05
2.37349e-05
2.38266e-05
2.39373e-05
2.4009e-05
2.41041e-05
2.41677e-05
2.42579e-05
2.42984e-05
2.43714e-05
2.44208e-05
2.45236e-05
2.46008e-05
2.4738e-05
2.4827e-05
2.49596e-05
2.50363e-05
2.51497e-05
2.52141e-05
2.53238e-05
2.53951e-05
2.55007e-05
2.5662e-05
2.55776e-05
2.60271e-05
2.56551e-05
2.61708e-05
2.63322e-05
2.48085e-05
2.60384e-05
2.6052e-05
2.52709e-05
2.61731e-05
2.73813e-05
2.75014e-05
2.69448e-05
2.61771e-05
2.54305e-05
2.47973e-05
2.42635e-05
2.37655e-05
2.34466e-05
2.29996e-05
2.2786e-05
2.24008e-05
2.2188e-05
2.18192e-05
2.15061e-05
2.15772e-05
2.1196e-05
2.0834e-05
2.05766e-05
2.05134e-05
2.01023e-05
2.01837e-05
1.99468e-05
1.97305e-05
1.97293e-05
1.98473e-05
1.95051e-05
1.94099e-05
1.95879e-05
1.94873e-05
1.91139e-05
1.92793e-05
1.93426e-05
1.90475e-05
1.88974e-05
1.89809e-05
1.89097e-05
1.87377e-05
1.86371e-05
1.85635e-05
1.84834e-05
1.83551e-05
1.82174e-05
1.80349e-05
1.78912e-05
1.76585e-05
1.74244e-05
1.70878e-05
1.68587e-05
1.66213e-05
1.65504e-05
1.64026e-05
1.63708e-05
1.61778e-05
1.61108e-05
1.58615e-05
1.57887e-05
1.55304e-05
1.54771e-05
1.51983e-05
1.51258e-05
1.48051e-05
1.46957e-05
1.43563e-05
1.42074e-05
1.38001e-05
1.35272e-05
1.30176e-05
1.26418e-05
1.21941e-05
1.19774e-05
1.17156e-05
1.16966e-05
1.17227e-05
1.20113e-05
1.20778e-05
1.26901e-05
1.26628e-05
1.39802e-05
1.48196e-05
1.69322e-05
2.22038e-05
2.66482e-05
3.28482e-05
3.73246e-05
4.04085e-05
4.11169e-05
3.64213e-05
4.02464e-05
4.58298e-05
3.66474e-05
1.72489e-05
4.77758e-06
1.18318e-06
5.76817e-07
3.89469e-07
3.8431e-07
4.02361e-07
4.01317e-07
4.0043e-07
4e-07
3.99214e-07
3.98713e-07
3.98416e-07
3.9829e-07
3.98124e-07
3.98022e-07
3.9799e-07
3.97935e-07
3.9794e-07
3.97995e-07
3.97927e-07
3.97886e-07
3.97857e-07
3.97839e-07
3.97927e-07
3.9781e-07
3.97905e-07
3.98038e-07
3.97997e-07
3.98056e-07
3.98386e-07
3.98461e-07
3.98649e-07
3.99144e-07
3.99794e-07
4.00023e-07
3.9737e-07
3.99582e-07
4.1062e-07
3.94692e-07
3.77396e-07
4.9264e-07
1.68322e-06
7.91047e-06
2.27974e-05
3.54407e-05
3.15945e-05
2.50599e-05
2.42004e-05
2.11002e-05
1.94434e-05
1.81406e-05
1.69959e-05
1.63925e-05
1.56756e-05
1.52941e-05
1.46688e-05
1.42476e-05
1.36694e-05
1.31971e-05
1.26982e-05
1.2203e-05
1.18381e-05
1.13922e-05
1.12481e-05
1.09789e-05
1.12131e-05
1.13216e-05
1.21334e-05
1.28181e-05
1.42918e-05
1.55214e-05
1.74159e-05
1.88682e-05
2.07967e-05
2.22004e-05
2.40451e-05
2.53712e-05
2.7037e-05
2.80077e-05
2.91045e-05
2.94142e-05
2.98346e-05
2.95406e-05
2.93218e-05
2.85527e-05
2.79846e-05
2.70249e-05
2.64171e-05
2.57915e-05
2.57273e-05
2.57671e-05
2.62914e-05
2.66155e-05
2.67668e-05
2.64621e-05
2.63338e-05
2.67832e-05
2.83599e-05
3.00136e-05
3.06459e-05
2.96582e-05
2.85317e-05
2.92068e-05
3.21249e-05
3.39844e-05
3.22227e-05
2.93684e-05
3.00584e-05
3.37811e-05
3.4296e-05
3.05879e-05
2.91741e-05
3.2132e-05
3.32476e-05
3.00874e-05
2.86525e-05
3.11028e-05
3.12225e-05
2.82235e-05
2.87305e-05
3.03817e-05
2.81782e-05
2.749e-05
2.87801e-05
2.74534e-05
2.68188e-05
2.76963e-05
2.63186e-05
2.60844e-05
2.5916e-05
2.53648e-05
2.49012e-05
2.49642e-05
2.42677e-05
2.4297e-05
2.36986e-05
2.34765e-05
2.29926e-05
2.26556e-05
2.21854e-05
2.17954e-05
2.13245e-05
2.09474e-05
2.04777e-05
2.01175e-05
1.97049e-05
1.9356e-05
1.89208e-05
1.86132e-05
1.81639e-05
1.78218e-05
1.74251e-05
1.7041e-05
1.66499e-05
1.62335e-05
1.58438e-05
1.54372e-05
1.50478e-05
1.46468e-05
1.42111e-05
1.37828e-05
1.33217e-05
1.28843e-05
1.24263e-05
1.19623e-05
1.14591e-05
1.09549e-05
1.04044e-05
9.83902e-06
9.22899e-06
8.61353e-06
7.93028e-06
7.21172e-06
6.42375e-06
5.67113e-06
4.90671e-06
4.20687e-06
3.48658e-06
2.79491e-06
2.15183e-06
1.73378e-06
1.44605e-06
1.15645e-06
7.46531e-07
4.91739e-07
5.09703e-07
5.35657e-07
3.57426e-07
3.43981e-07
5.10336e-07
5.17221e-07
3.39254e-07
3.71743e-07
4.52263e-07
4.83188e-07
4.18545e-07
3.79077e-07
3.30917e-07
4.58769e-07
4.2219e-07
4.79659e-07
4.87941e-07
4.92158e-07
4.13057e-07
3.99131e-07
4.77165e-07
5.21579e-07
4.97266e-07
4.89237e-07
4.92643e-07
5.39954e-07
4.39584e-07
5.12469e-07
5.7965e-07
5.37816e-07
3.78632e-07
6.19256e-07
1.09361e-06
9.8385e-07
6.99529e-07
9.88727e-07
1.58315e-06
2.13253e-06
2.62662e-06
3.3543e-06
4.23232e-06
5.14663e-06
6.15411e-06
7.28518e-06
8.3897e-06
9.53659e-06
1.06788e-05
1.18615e-05
1.30137e-05
1.41429e-05
1.51512e-05
1.60608e-05
1.68349e-05
1.75909e-05
1.82045e-05
1.88473e-05
1.93534e-05
1.98763e-05
2.03309e-05
2.08347e-05
2.12639e-05
2.17588e-05
2.21662e-05
2.26393e-05
2.30216e-05
2.3473e-05
2.38237e-05
2.42389e-05
2.45232e-05
2.49491e-05
2.52255e-05
2.56726e-05
2.59869e-05
2.64448e-05
2.67478e-05
2.71898e-05
2.74447e-05
2.78796e-05
2.81164e-05
2.85396e-05
2.89366e-05
2.8972e-05
2.98282e-05
2.96036e-05
3.00244e-05
3.1275e-05
2.8887e-05
3.22224e-05
3.30063e-05
3.22853e-05
3.44089e-05
3.75434e-05
3.87517e-05
3.84796e-05
3.7551e-05
3.65381e-05
3.56297e-05
3.49265e-05
3.41948e-05
3.39134e-05
3.32651e-05
3.31572e-05
3.26256e-05
3.25234e-05
3.21611e-05
3.16969e-05
3.21524e-05
3.17239e-05
3.13203e-05
3.10373e-05
3.12445e-05
3.05451e-05
3.11112e-05
3.1037e-05
3.08206e-05
3.10681e-05
3.18293e-05
3.14293e-05
3.14263e-05
3.22734e-05
3.25823e-05
3.19284e-05
3.26397e-05
3.33442e-05
3.3026e-05
3.29152e-05
3.3527e-05
3.38067e-05
3.37383e-05
3.37888e-05
3.3958e-05
3.4102e-05
3.41205e-05
3.40487e-05
3.38733e-05
3.37173e-05
3.33924e-05
3.29535e-05
3.23159e-05
3.17968e-05
3.13708e-05
3.12421e-05
3.1118e-05
3.11134e-05
3.09153e-05
3.07754e-05
3.04238e-05
3.02059e-05
2.98212e-05
2.96104e-05
2.92029e-05
2.89398e-05
2.84325e-05
2.807e-05
2.74683e-05
2.70168e-05
2.62779e-05
2.56377e-05
2.46921e-05
2.38878e-05
2.2937e-05
2.2316e-05
2.17171e-05
2.15744e-05
2.15466e-05
2.19904e-05
2.24284e-05
2.33609e-05
2.41879e-05
2.56912e-05
2.72805e-05
2.87287e-05
2.82927e-05
3.14336e-05
3.93537e-05
4.64732e-05
5.15814e-05
5.54752e-05
5.31809e-05
5.23692e-05
4.95469e-05
3.60421e-05
1.92073e-05
5.95401e-06
1.31405e-06
6.28339e-07
5.22068e-07
4.23467e-07
4.0088e-07
4.01266e-07
4.01191e-07
4.00274e-07
3.99538e-07
3.98834e-07
3.98262e-07
3.98079e-07
3.98102e-07
3.98025e-07
3.97984e-07
3.97892e-07
3.97893e-07
3.97711e-07
3.97716e-07
3.97722e-07
3.97765e-07
3.97637e-07
3.97755e-07
3.97806e-07
3.97897e-07
3.97859e-07
3.98128e-07
3.9803e-07
3.98324e-07
3.97944e-07
3.98642e-07
3.9927e-07
3.99722e-07
4.00288e-07
3.95785e-07
3.8467e-07
3.86879e-07
3.95083e-07
2.99291e-07
3.80423e-07
1.27895e-06
5.21617e-06
1.64631e-05
2.85485e-05
2.62956e-05
2.04438e-05
2.03502e-05
1.79447e-05
1.71094e-05
1.63491e-05
1.55794e-05
1.51148e-05
1.43923e-05
1.39468e-05
1.31803e-05
1.27033e-05
1.19411e-05
1.14668e-05
1.08077e-05
1.04208e-05
1.00057e-05
9.86836e-06
9.90555e-06
1.02664e-05
1.10065e-05
1.20715e-05
1.35873e-05
1.52722e-05
1.72993e-05
1.92733e-05
2.1492e-05
2.35546e-05
2.58571e-05
2.79634e-05
3.0321e-05
3.23232e-05
3.44097e-05
3.58183e-05
3.70726e-05
3.7491e-05
3.77459e-05
3.7232e-05
3.66113e-05
3.54249e-05
3.43469e-05
3.30282e-05
3.21476e-05
3.15045e-05
3.16306e-05
3.19998e-05
3.28119e-05
3.3194e-05
3.31495e-05
3.26646e-05
3.26964e-05
3.38554e-05
3.63567e-05
3.84196e-05
3.86345e-05
3.68955e-05
3.56663e-05
3.74545e-05
4.17647e-05
4.34993e-05
4.01208e-05
3.62662e-05
3.81469e-05
4.34201e-05
4.30382e-05
3.72277e-05
3.58459e-05
4.03768e-05
4.11028e-05
3.60323e-05
3.44562e-05
3.80776e-05
3.74465e-05
3.30159e-05
3.41506e-05
3.60643e-05
3.249e-05
3.17822e-05
3.34491e-05
3.11612e-05
3.02828e-05
3.1305e-05
2.91453e-05
2.88427e-05
2.84174e-05
2.74623e-05
2.67384e-05
2.66763e-05
2.5566e-05
2.55224e-05
2.45343e-05
2.41445e-05
2.33627e-05
2.28164e-05
2.2086e-05
2.14783e-05
2.07892e-05
2.02179e-05
1.95513e-05
1.9013e-05
1.8448e-05
1.79286e-05
1.73516e-05
1.68881e-05
1.62843e-05
1.57904e-05
1.52232e-05
1.46926e-05
1.41158e-05
1.35431e-05
1.29663e-05
1.23967e-05
1.18298e-05
1.12643e-05
1.06218e-05
9.9968e-06
9.29822e-06
8.62213e-06
7.89084e-06
7.13275e-06
6.30857e-06
5.49153e-06
4.66777e-06
3.89844e-06
3.18256e-06
2.56494e-06
2.02352e-06
1.57784e-06
1.15074e-06
8.74604e-07
6.8432e-07
6.04909e-07
5.00303e-07
4.57351e-07
4.22e-07
4.33382e-07
4.00146e-07
3.94513e-07
3.77939e-07
3.78007e-07
3.64141e-07
3.86943e-07
3.8472e-07
4.06186e-07
3.40247e-07
3.85014e-07
4.00392e-07
4.08052e-07
3.23028e-07
3.79875e-07
4.02429e-07
4.62336e-07
4.62964e-07
4.66439e-07
3.99392e-07
3.45505e-07
3.37774e-07
4.06126e-07
3.74371e-07
3.96505e-07
3.6237e-07
3.19652e-07
3.45129e-07
3.55885e-07
3.32441e-07
3.66063e-07
3.40871e-07
3.63544e-07
3.517e-07
3.85813e-07
3.24118e-07
3.78959e-07
4.03433e-07
4.29093e-07
3.5973e-07
4.41619e-07
4.51327e-07
5.02369e-07
4.62438e-07
5.70583e-07
5.93158e-07
7.17467e-07
8.10098e-07
1.06618e-06
1.25442e-06
1.59802e-06
1.96955e-06
2.51448e-06
3.15015e-06
4.05556e-06
4.96156e-06
5.96755e-06
6.92911e-06
8.08773e-06
9.1478e-06
1.03161e-05
1.13368e-05
1.23728e-05
1.33073e-05
1.4288e-05
1.51338e-05
1.60368e-05
1.68092e-05
1.76375e-05
1.83435e-05
1.91121e-05
1.9763e-05
2.05107e-05
2.10725e-05
2.18206e-05
2.23607e-05
2.30907e-05
2.36457e-05
2.4354e-05
2.48833e-05
2.55669e-05
2.60292e-05
2.67023e-05
2.71307e-05
2.77953e-05
2.8437e-05
2.86302e-05
2.9688e-05
2.98576e-05
2.99508e-05
3.22508e-05
3.01588e-05
3.39094e-05
3.50701e-05
3.43633e-05
3.7036e-05
4.12892e-05
4.33173e-05
4.34812e-05
4.27035e-05
4.17684e-05
4.08455e-05
4.02186e-05
3.94224e-05
3.93166e-05
3.86204e-05
3.86808e-05
3.8119e-05
3.81492e-05
3.79975e-05
3.74105e-05
3.80874e-05
3.77108e-05
3.73908e-05
3.7121e-05
3.76212e-05
3.66479e-05
3.75303e-05
3.7789e-05
3.76462e-05
3.79619e-05
3.93128e-05
3.90753e-05
3.90317e-05
4.03245e-05
4.12434e-05
4.04456e-05
4.13791e-05
4.27368e-05
4.26558e-05
4.25309e-05
4.35115e-05
4.42348e-05
4.4406e-05
4.46301e-05
4.50446e-05
4.54639e-05
4.57277e-05
4.58309e-05
4.57703e-05
4.56949e-05
4.54149e-05
4.49324e-05
4.41671e-05
4.34559e-05
4.28764e-05
4.26614e-05
4.25576e-05
4.25976e-05
4.24713e-05
4.2336e-05
4.19841e-05
4.16833e-05
4.12415e-05
4.09055e-05
4.04264e-05
4.00195e-05
3.94245e-05
3.88857e-05
3.81643e-05
3.75063e-05
3.66339e-05
3.57826e-05
3.46908e-05
3.36412e-05
3.2446e-05
3.14452e-05
3.04621e-05
2.98518e-05
2.94336e-05
2.95339e-05
2.98432e-05
3.06919e-05
3.16786e-05
3.32736e-05
3.50113e-05
3.72191e-05
3.82807e-05
3.97672e-05
4.32674e-05
5.02495e-05
5.66197e-05
6.35165e-05
6.44722e-05
6.3834e-05
5.57128e-05
3.51973e-05
1.70413e-05
6.70036e-06
1.5763e-06
3.05118e-07
3.51107e-07
4.20337e-07
4.02283e-07
3.97641e-07
4.00186e-07
4.00053e-07
3.99471e-07
3.98824e-07
3.98343e-07
3.98052e-07
3.98115e-07
3.98047e-07
3.97962e-07
3.97938e-07
3.97882e-07
3.97885e-07
3.97919e-07
3.97967e-07
3.97851e-07
3.98151e-07
3.97855e-07
3.98051e-07
3.97959e-07
3.9801e-07
3.98002e-07
3.98035e-07
3.97963e-07
3.98535e-07
3.98604e-07
3.99528e-07
4.0012e-07
4.01673e-07
4.0423e-07
4.0403e-07
3.90354e-07
4.17622e-07
4.71943e-07
3.75485e-07
5.23905e-07
2.34344e-06
9.81265e-06
2.00886e-05
1.95504e-05
1.43219e-05
1.47217e-05
1.30664e-05
1.24519e-05
1.20685e-05
1.13934e-05
1.11378e-05
1.03529e-05
1.00529e-05
9.2048e-06
8.89701e-06
8.11748e-06
7.92359e-06
7.43055e-06
7.56278e-06
7.63449e-06
8.34708e-06
9.19623e-06
1.05877e-05
1.21348e-05
1.39934e-05
1.59224e-05
1.79935e-05
2.01328e-05
2.24009e-05
2.48158e-05
2.73552e-05
3.00328e-05
3.27139e-05
3.54598e-05
3.79172e-05
4.01778e-05
4.17816e-05
4.29454e-05
4.32901e-05
4.32158e-05
4.23951e-05
4.12928e-05
3.9713e-05
3.81893e-05
3.66986e-05
3.57701e-05
3.54177e-05
3.5979e-05
3.67908e-05
3.77874e-05
3.80196e-05
3.76627e-05
3.71525e-05
3.76778e-05
3.98179e-05
4.30333e-05
4.49486e-05
4.43411e-05
4.2027e-05
4.12841e-05
4.45386e-05
4.96755e-05
5.04242e-05
4.53755e-05
4.12656e-05
4.47772e-05
5.09208e-05
4.89105e-05
4.13524e-05
4.06661e-05
4.65478e-05
4.61923e-05
3.93559e-05
3.81817e-05
4.27728e-05
4.09041e-05
3.5367e-05
3.73811e-05
3.91429e-05
3.42144e-05
3.37949e-05
3.56247e-05
3.22891e-05
3.13431e-05
3.23865e-05
2.94791e-05
2.92145e-05
2.84957e-05
2.71583e-05
2.62493e-05
2.60435e-05
2.45773e-05
2.44916e-05
2.31482e-05
2.26449e-05
2.16028e-05
2.08966e-05
1.99488e-05
1.91617e-05
1.82971e-05
1.75541e-05
1.67239e-05
1.60165e-05
1.53186e-05
1.46378e-05
1.39346e-05
1.33078e-05
1.2581e-05
1.19125e-05
1.12047e-05
1.05113e-05
9.74731e-06
8.98815e-06
8.1763e-06
7.39935e-06
6.60074e-06
5.85835e-06
4.99841e-06
4.24876e-06
3.44917e-06
2.84585e-06
2.26247e-06
1.8058e-06
1.33611e-06
1.03373e-06
7.80144e-07
6.61593e-07
5.12121e-07
4.71018e-07
4.48103e-07
4.64809e-07
3.88462e-07
4.63672e-07
4.00905e-07
4.34913e-07
4.01728e-07
4.17311e-07
3.8912e-07
4.17254e-07
3.91554e-07
4.34344e-07
4.14424e-07
4.53644e-07
4.2534e-07
4.61605e-07
4.11338e-07
4.63584e-07
4.06807e-07
4.59907e-07
3.92858e-07
4.67952e-07
4.46176e-07
4.62297e-07
3.7677e-07
3.7763e-07
3.49693e-07
3.38253e-07
4.12492e-07
4.85813e-07
4.52233e-07
4.51279e-07
4.05374e-07
4.29086e-07
4.62812e-07
4.34347e-07
4.66028e-07
4.46109e-07
4.62657e-07
4.48592e-07
4.54628e-07
4.44945e-07
4.56217e-07
4.42344e-07
4.40423e-07
4.25339e-07
4.2574e-07
4.14488e-07
3.96653e-07
3.96872e-07
3.86552e-07
3.9612e-07
3.87337e-07
3.91371e-07
4.00552e-07
3.78132e-07
4.15577e-07
3.98956e-07
4.26001e-07
4.54022e-07
4.52824e-07
5.12953e-07
5.40028e-07
6.5232e-07
7.9886e-07
9.93425e-07
1.12024e-06
1.49322e-06
1.80875e-06
2.3384e-06
2.83846e-06
3.48852e-06
4.17845e-06
5.06589e-06
5.94125e-06
6.99933e-06
8.04742e-06
9.2252e-06
1.03264e-05
1.14956e-05
1.25569e-05
1.37185e-05
1.46599e-05
1.57673e-05
1.66453e-05
1.76588e-05
1.85175e-05
1.94546e-05
2.02656e-05
2.11532e-05
2.18747e-05
2.27235e-05
2.34081e-05
2.42424e-05
2.52012e-05
2.55315e-05
2.67963e-05
2.73547e-05
2.72755e-05
3.03327e-05
2.87479e-05
3.27625e-05
3.40233e-05
3.35641e-05
3.65157e-05
4.1356e-05
4.3915e-05
4.45003e-05
4.39804e-05
4.3315e-05
4.25177e-05
4.21433e-05
4.13878e-05
4.1578e-05
4.09442e-05
4.1244e-05
4.07514e-05
4.09199e-05
4.11304e-05
4.04746e-05
4.13234e-05
4.10714e-05
4.08923e-05
4.06292e-05
4.15313e-05
4.03152e-05
4.13626e-05
4.20738e-05
4.21284e-05
4.23834e-05
4.42987e-05
4.44481e-05
4.4308e-05
4.58484e-05
4.75647e-05
4.68051e-05
4.77257e-05
4.97164e-05
5.01254e-05
5.00049e-05
5.12168e-05
5.24348e-05
5.29773e-05
5.34222e-05
5.40789e-05
5.47971e-05
5.53678e-05
5.57325e-05
5.58683e-05
5.59411e-05
5.57912e-05
5.53889e-05
5.46275e-05
5.38205e-05
5.31104e-05
5.27798e-05
5.26459e-05
5.27103e-05
5.26603e-05
5.25782e-05
5.22703e-05
5.19479e-05
5.14735e-05
5.10546e-05
5.0507e-05
4.99991e-05
4.93296e-05
4.86819e-05
4.78767e-05
4.70986e-05
4.61449e-05
4.51911e-05
4.40343e-05
4.28775e-05
4.15663e-05
4.03507e-05
3.90955e-05
3.80813e-05
3.71859e-05
3.67375e-05
3.65543e-05
3.69457e-05
3.76462e-05
3.89903e-05
4.06273e-05
4.28522e-05
4.47305e-05
4.70483e-05
4.95617e-05
5.26324e-05
5.88364e-05
6.66534e-05
6.9951e-05
7.18036e-05
6.37034e-05
4.15405e-05
1.35928e-05
4.85341e-06
1.85548e-06
5.45456e-07
2.64387e-07
3.49276e-07
4.0086e-07
4.02396e-07
4.00885e-07
4.0019e-07
3.99493e-07
3.98757e-07
3.98412e-07
3.98152e-07
3.9809e-07
3.98109e-07
3.97997e-07
3.97905e-07
3.97837e-07
3.97782e-07
3.97697e-07
3.97563e-07
3.97799e-07
3.97665e-07
3.97835e-07
3.97697e-07
3.97804e-07
3.97936e-07
3.97952e-07
3.98043e-07
3.98223e-07
3.9802e-07
3.98713e-07
3.99199e-07
3.99738e-07
3.99933e-07
4.00058e-07
4.06875e-07
4.02923e-07
3.76227e-07
4.83176e-07
6.74172e-07
5.32137e-07
8.11922e-07
3.72938e-06
1.0702e-05
1.16745e-05
7.32696e-06
7.71167e-06
6.63824e-06
6.14855e-06
6.02005e-06
5.50356e-06
5.48176e-06
4.89178e-06
4.91133e-06
4.42416e-06
4.66076e-06
4.5361e-06
5.19392e-06
5.6416e-06
6.80792e-06
7.82486e-06
9.33675e-06
1.07106e-05
1.2364e-05
1.39241e-05
1.57256e-05
1.75444e-05
1.97021e-05
2.19351e-05
2.45754e-05
2.72751e-05
3.03055e-05
3.32788e-05
3.63839e-05
3.93008e-05
4.19772e-05
4.41623e-05
4.57514e-05
4.66234e-05
4.67418e-05
4.6226e-05
4.50426e-05
4.34508e-05
4.1557e-05
3.97475e-05
3.83406e-05
3.7677e-05
3.79289e-05
3.91043e-05
4.02974e-05
4.12427e-05
4.11128e-05
4.04723e-05
4.02343e-05
4.16111e-05
4.48033e-05
4.82854e-05
4.95098e-05
4.79218e-05
4.54169e-05
4.57259e-05
5.04818e-05
5.56781e-05
5.481e-05
4.83286e-05
4.47278e-05
5.00392e-05
5.62385e-05
5.21087e-05
4.33221e-05
4.38934e-05
5.07277e-05
4.8704e-05
4.03947e-05
4.011e-05
4.53511e-05
4.18596e-05
3.56192e-05
3.86711e-05
3.98658e-05
3.36903e-05
3.38276e-05
3.5575e-05
3.11685e-05
3.03473e-05
3.12932e-05
2.76978e-05
2.75771e-05
2.65366e-05
2.48628e-05
2.38476e-05
2.34879e-05
2.17357e-05
2.16419e-05
1.99868e-05
1.94209e-05
1.81505e-05
1.7326e-05
1.61907e-05
1.52461e-05
1.42323e-05
1.3328e-05
1.23567e-05
1.14794e-05
1.06576e-05
9.79365e-06
8.9474e-06
8.10969e-06
7.21581e-06
6.32422e-06
5.47013e-06
4.63323e-06
3.82082e-06
3.08689e-06
2.4358e-06
1.93123e-06
1.51813e-06
1.2712e-06
8.84523e-07
7.84017e-07
5.49455e-07
5.66884e-07
4.15597e-07
4.93229e-07
3.69628e-07
4.48944e-07
3.72719e-07
4.49839e-07
3.96768e-07
4.19854e-07
4.00556e-07
4.05868e-07
3.77663e-07
4.16943e-07
3.73503e-07
4.13224e-07
3.88797e-07
4.14988e-07
4.04279e-07
4.21996e-07
3.99311e-07
4.14634e-07
3.81018e-07
4.01062e-07
3.59415e-07
3.91981e-07
3.54595e-07
3.95526e-07
3.65795e-07
4.05607e-07
3.75071e-07
3.822e-07
3.5235e-07
3.77295e-07
4.19382e-07
4.35292e-07
4.58718e-07
4.62739e-07
4.02914e-07
3.3892e-07
3.56731e-07
4.06427e-07
3.67039e-07
3.8057e-07
3.60611e-07
3.69462e-07
3.89046e-07
3.52932e-07
3.85662e-07
3.5852e-07
3.84291e-07
3.59746e-07
3.8739e-07
3.70376e-07
3.98321e-07
3.85015e-07
4.10008e-07
4.00913e-07
4.25079e-07
4.09765e-07
4.31064e-07
4.02516e-07
4.37756e-07
3.96789e-07
4.48939e-07
3.92463e-07
4.46019e-07
3.88582e-07
4.30253e-07
3.83834e-07
4.28325e-07
3.71855e-07
4.2954e-07
3.59921e-07
3.86369e-07
3.95369e-07
3.66064e-07
4.29128e-07
4.49509e-07
4.65815e-07
5.41478e-07
6.06097e-07
6.79689e-07
8.11013e-07
1.00741e-06
1.22431e-06
1.51441e-06
1.98125e-06
2.52459e-06
3.17966e-06
3.88901e-06
4.86736e-06
5.81152e-06
7.03606e-06
8.22084e-06
9.52702e-06
1.08334e-05
1.20744e-05
1.33104e-05
1.44192e-05
1.54979e-05
1.64854e-05
1.74952e-05
1.84454e-05
1.97639e-05
2.02576e-05
2.16686e-05
2.26832e-05
2.24723e-05
2.60147e-05
2.53369e-05
2.93708e-05
3.05435e-05
3.05023e-05
3.36959e-05
3.87298e-05
4.14447e-05
4.22823e-05
4.19706e-05
4.16659e-05
4.106e-05
4.10712e-05
4.04348e-05
4.10141e-05
4.05445e-05
4.11402e-05
4.08213e-05
4.11176e-05
4.18131e-05
4.11664e-05
4.2144e-05
4.20814e-05
4.21061e-05
4.17999e-05
4.31997e-05
4.18351e-05
4.28742e-05
4.4085e-05
4.45077e-05
4.45986e-05
4.69717e-05
4.77339e-05
4.75317e-05
4.90614e-05
5.166e-05
5.1211e-05
5.19306e-05
5.44126e-05
5.55325e-05
5.55247e-05
5.68248e-05
5.85081e-05
5.95328e-05
6.02706e-05
6.11688e-05
6.21832e-05
6.30942e-05
6.37879e-05
6.41955e-05
6.44822e-05
6.45321e-05
6.43099e-05
6.3679e-05
6.2895e-05
6.21221e-05
6.16796e-05
6.14776e-05
6.15281e-05
6.15361e-05
6.15229e-05
6.12936e-05
6.10006e-05
6.05325e-05
6.00686e-05
5.94742e-05
5.8891e-05
5.81644e-05
5.74417e-05
5.65809e-05
5.57294e-05
5.47329e-05
5.37273e-05
5.25524e-05
5.13607e-05
5.00156e-05
4.87063e-05
4.73144e-05
4.60497e-05
4.48079e-05
4.38588e-05
4.30984e-05
4.28322e-05
4.29127e-05
4.36569e-05
4.48628e-05
4.67322e-05
4.87965e-05
5.13701e-05
5.39062e-05
5.65806e-05
5.99398e-05
6.62642e-05
7.0329e-05
7.50427e-05
7.26775e-05
5.53884e-05
2.08457e-05
3.29071e-06
1.01054e-06
8.55553e-07
5.85173e-07
4.06556e-07
3.89434e-07
3.97961e-07
4.00737e-07
4.00003e-07
3.99732e-07
3.9876e-07
3.98342e-07
3.98324e-07
3.98087e-07
3.9813e-07
3.97989e-07
3.97923e-07
3.97899e-07
3.97892e-07
3.97967e-07
3.97959e-07
3.97829e-07
3.97936e-07
3.97877e-07
3.9808e-07
3.97993e-07
3.98008e-07
3.98016e-07
3.98007e-07
3.98324e-07
3.98248e-07
3.98485e-07
3.99353e-07
3.99509e-07
4.00241e-07
3.98342e-07
3.98938e-07
4.13689e-07
4.20435e-07
3.10416e-07
1.44379e-07
1.59795e-07
5.25504e-08
3.65095e-07
2.72571e-06
4.07089e-06
1.53874e-06
1.6185e-06
1.21537e-06
7.82895e-07
1.06796e-06
9.93233e-07
1.67735e-06
1.79405e-06
2.67686e-06
3.10184e-06
4.14076e-06
4.88272e-06
5.95006e-06
6.79347e-06
7.92603e-06
8.80199e-06
1.00332e-05
1.11437e-05
1.26044e-05
1.40972e-05
1.59726e-05
1.79355e-05
2.0414e-05
2.2882e-05
2.59748e-05
2.89215e-05
3.23252e-05
3.5422e-05
3.87511e-05
4.16201e-05
4.43015e-05
4.61954e-05
4.76072e-05
4.80352e-05
4.78052e-05
4.6786e-05
4.52185e-05
4.31947e-05
4.11288e-05
3.92868e-05
3.82893e-05
3.82598e-05
3.93635e-05
4.1167e-05
4.24755e-05
4.30718e-05
4.24685e-05
4.17595e-05
4.21935e-05
4.46987e-05
4.87443e-05
5.19012e-05
5.20327e-05
4.9563e-05
4.73824e-05
4.91735e-05
5.51406e-05
5.95876e-05
5.67588e-05
4.929e-05
4.68849e-05
5.38833e-05
5.93078e-05
5.28167e-05
4.3415e-05
4.56584e-05
5.29155e-05
4.87744e-05
3.94011e-05
4.04049e-05
4.58824e-05
4.05023e-05
3.40149e-05
3.81586e-05
3.83927e-05
3.11599e-05
3.20719e-05
3.34772e-05
2.80526e-05
2.75504e-05
2.828e-05
2.40899e-05
2.42166e-05
2.28334e-05
2.08943e-05
1.98509e-05
1.93313e-05
1.73751e-05
1.73014e-05
1.53829e-05
1.47901e-05
1.33118e-05
1.23861e-05
1.1064e-05
9.92029e-06
8.70283e-06
7.54843e-06
6.40638e-06
5.34444e-06
4.53428e-06
3.61769e-06
3.01515e-06
2.29872e-06
1.89596e-06
1.2948e-06
1.18556e-06
7.74473e-07
7.68841e-07
4.51008e-07
6.70578e-07
2.95127e-07
6.09599e-07
3.52143e-07
5.03068e-07
3.82266e-07
4.77564e-07
3.7467e-07
4.7976e-07
3.67127e-07
4.81648e-07
3.58664e-07
4.70968e-07
3.47762e-07
4.54956e-07
3.51226e-07
4.58178e-07
3.78224e-07
4.51634e-07
3.91544e-07
4.36655e-07
3.98888e-07
4.25816e-07
3.93954e-07
4.08373e-07
3.88254e-07
4.04645e-07
3.99747e-07
4.13507e-07
4.11713e-07
4.24348e-07
4.26752e-07
4.35246e-07
4.229e-07
4.2295e-07
4.07261e-07
4.23155e-07
4.23224e-07
4.45506e-07
4.21128e-07
3.97013e-07
3.71452e-07
3.59885e-07
3.70789e-07
4.06115e-07
4.70202e-07
4.35718e-07
4.45245e-07
4.18126e-07
4.47749e-07
4.44863e-07
4.46974e-07
4.41772e-07
4.23338e-07
4.43065e-07
4.17656e-07
4.41809e-07
4.13176e-07
4.31945e-07
4.04244e-07
4.21467e-07
3.91446e-07
4.10411e-07
3.74646e-07
4.04579e-07
3.6854e-07
4.11374e-07
3.58966e-07
4.16241e-07
3.4675e-07
4.24074e-07
3.38579e-07
4.4216e-07
3.40198e-07
4.59416e-07
3.43744e-07
4.67188e-07
3.53587e-07
4.70309e-07
4.00561e-07
4.53932e-07
4.44651e-07
4.26042e-07
4.24184e-07
4.6056e-07
3.82085e-07
4.87648e-07
3.69376e-07
4.93106e-07
3.74007e-07
4.99287e-07
4.34139e-07
4.9407e-07
4.63997e-07
5.87107e-07
5.56008e-07
6.84885e-07
8.12855e-07
1.07652e-06
1.28851e-06
1.82099e-06
2.2574e-06
3.11793e-06
3.8367e-06
5.03872e-06
5.9969e-06
7.261e-06
8.27725e-06