/*--------------------------------*- C++ -*----------------------------------*\
| =========                 |                                                 |
| \\      /  F ield         | OpenFOAM: The Open Source CFD Toolbox           |
|  \\    /   O peration     | Version:  v2006                                 |
|   \\  /    A nd           | Website:  www.openfoam.com                      |
|    \\/     M anipulation  |                                                 |
\*---------------------------------------------------------------------------*/
FoamFile
{
    version     2.0;
    format      ascii;
    class       volScalarField;
    location    "60";
    object      p;
}
// * * * * * * * * * * * * * * * * * * * * * * * * * * * * * * * * * * * * * //

dimensions      [1 -1 -2 0 0 0 0];


internalField   nonuniform List<scalar> 
93840
(
1.00871
1.01094
1.00796
1.00565
1.00802
1.00747
1.00628
1.02356
1.00742
1.02274
1.01472
1.02531
1.0214
1.02853
1.03229
1.03864
1.04277
1.04859
1.05199
1.05645
1.05868
1.06398
1.06453
1.06506
1.0614
1.06251
1.05968
1.06258
1.05591
1.06264
1.05282
1.08097
1.05045
1.06371
1.06496
1.07181
1.07208
1.07761
1.07809
1.08275
1.08379
1.0869
1.08744
1.09031
1.09142
1.09436
1.09566
1.09808
1.09893
1.10161
1.10239
1.10426
1.10533
1.108
1.10798
1.10884
1.10867
1.11037
1.11166
1.11347
1.11322
1.11445
1.11477
1.11559
1.11583
1.11613
1.11538
1.11514
1.11497
1.11473
1.11458
1.1143
1.1133
1.11215
1.11146
1.11049
1.10949
1.10827
1.10678
1.10501
1.10366
1.10188
1.10013
1.09758
1.09529
1.09301
1.09061
1.08788
1.08513
1.08238
1.07918
1.07525
1.07118
1.06714
1.06327
1.05866
1.05396
1.04943
1.0448
1.03942
1.0341
1.02904
1.02371
1.01472
1.00564
1.00228
0.999727
0.992708
0.984896
0.977185
0.9696
0.961955
0.954638
0.945713
0.93781
0.929946
0.923217
0.915107
0.909218
0.902577
0.897789
0.891437
0.889771
0.886737
0.888744
0.892023
0.888894
0.902206
0.900124
0.909247
0.914263
0.919943
0.928646
0.931927
0.940499
0.94466
0.955805
0.958269
0.967213
0.97032
0.978141
0.981434
0.989575
0.993343
1.00084
1.00469
1.01172
1.01486
1.02271
1.02698
1.03562
1.0393
1.04747
1.05261
1.06156
1.06618
1.07526
1.08078
1.09105
1.09809
1.10834
1.11286
1.12321
1.13073
1.14172
1.15036
1.16417
1.17365
1.18718
1.19787
1.21403
1.22844
1.24555
1.25908
1.27984
1.29912
1.32435
1.35059
1.37875
1.40279
1.42283
1.43297
1.40343
1.32718
1.19762
1.06189
0.914496
0.828479
0.78852
0.78498
0.703975
0.64842
0.609563
0.600976
0.570502
0.563132
0.554894
0.547423
0.550375
0.54695
0.551516
0.554023
0.556415
0.558654
0.561203
0.563621
0.56649
0.569601
0.573379
0.576199
0.577345
0.579306
0.580081
0.581005
0.582306
0.58456
0.586109
0.58663
0.586766
0.586908
0.581963
0.581527
0.583444
0.584743
0.586237
0.587484
0.588645
0.589996
0.592369
0.593845
0.59235
0.586892
0.582921
0.579886
0.578077
0.578798
0.578394
0.57859
0.578474
0.578286
0.577266
0.575407
0.572918
0.571438
0.569982
0.569295
0.568899
0.568841
0.577754
0.592536
0.634729
0.720527
0.769725
0.778828
0.777855
0.781826
0.784254
0.788379
0.793298
0.799563
0.806387
0.813924
0.820847
0.828286
0.835788
0.843633
0.850567
0.858393
0.868721
0.87852
0.882744
0.88719
0.895072
0.904348
0.909889
0.914202
0.919646
0.926514
0.932575
0.938145
0.943605
0.949013
0.954268
0.959365
0.96444
0.969289
0.973756
0.97812
0.982307
0.986335
0.990162
0.993888
0.997403
1.00082
1.00399
1.00712
1.00999
1.01282
1.01539
1.01793
1.02021
1.02244
1.02441
1.02639
1.02817
1.02983
1.03142
1.03282
1.03421
1.03536
1.03662
1.03757
1.0388
1.03937
1.04056
1.04093
1.04211
1.0423
1.04368
1.04328
1.0447
1.04413
1.04547
1.04495
1.04667
1.04544
1.04809
1.04577
1.04903
1.0454
1.04861
1.04701
1.04778
1.04421
1.04896
1.04822
1.04755
1.04743
1.05399
1.05879
1.06065
1.06231
1.0671
1.06509
1.06633
1.06479
1.06436
1.05839
1.05575
1.05208
1.04892
1.04284
1.03863
1.0322
1.02821
1.02128
1.02534
1.01428
1.02311
1.00623
1.02337
1.00526
1.00727
1.00736
1.00541
1.00727
1.01043
1.00858
1.00863
1.01047
1.00731
1.00536
1.00724
1.00733
1.00532
1.02336
1.00624
1.0231
1.01433
1.02534
1.02126
1.02833
1.03207
1.03854
1.04278
1.0489
1.05199
1.05595
1.05828
1.06428
1.06447
1.06578
1.06484
1.06621
1.06145
1.06066
1.05977
1.05908
1.05663
1.05502
1.05864
1.06296
1.06643
1.07037
1.07204
1.07666
1.0774
1.08183
1.08286
1.08634
1.08667
1.09001
1.09078
1.09398
1.09477
1.09768
1.09825
1.10117
1.10174
1.10399
1.10473
1.10723
1.1072
1.10842
1.1086
1.11009
1.11122
1.1128
1.11279
1.1141
1.11434
1.11526
1.11546
1.11573
1.11509
1.11489
1.11466
1.1145
1.11437
1.114
1.11306
1.11193
1.11123
1.1103
1.10929
1.10806
1.10662
1.10488
1.10351
1.10171
1.09994
1.09743
1.09518
1.0929
1.0905
1.08776
1.08501
1.08226
1.07907
1.07516
1.07111
1.06709
1.06321
1.05861
1.05393
1.04941
1.04477
1.0394
1.03412
1.02901
1.02363
1.01482
1.00595
1.00244
0.999673
0.992721
0.985034
0.977366
0.969812
0.962185
0.954874
0.946018
0.938201
0.930368
0.923645
0.915629
0.909809
0.903225
0.898439
0.892238
0.89059
0.887695
0.889552
0.89274
0.889588
0.902608
0.900903
0.909999
0.914957
0.920708
0.929245
0.93257
0.941264
0.945179
0.956383
0.958607
0.96764
0.970618
0.978617
0.981903
0.990097
0.993881
1.00158
1.00546
1.0127
1.0159
1.02361
1.02775
1.03622
1.03998
1.04835
1.05364
1.06283
1.06755
1.07684
1.08223
1.09236
1.09918
1.10974
1.11496
1.12566
1.13329
1.14456
1.15321
1.16702
1.17684
1.19132
1.20229
1.21867
1.2329
1.25105
1.26636
1.28651
1.30496
1.32634
1.34924
1.37284
1.39614
1.40581
1.41502
1.38328
1.34398
1.25548
1.15014
1.02817
0.928395
0.857707
0.829808
0.759317
0.699285
0.647186
0.631212
0.596515
0.583703
0.570537
0.560182
0.561511
0.555409
0.558961
0.560726
0.561815
0.563132
0.564942
0.566766
0.569326
0.57226
0.575856
0.578568
0.579641
0.581366
0.581841
0.582863
0.583929
0.585906
0.587424
0.587887
0.587977
0.588145
0.583567
0.582675
0.584207
0.585426
0.586828
0.58804
0.589191
0.590493
0.592832
0.594322
0.593073
0.587521
0.583575
0.580551
0.5787
0.579136
0.578723
0.57906
0.578974
0.578585
0.577496
0.575867
0.573426
0.571974
0.5704
0.56963
0.569324
0.569238
0.577896
0.592844
0.635156
0.721023
0.770043
0.779009
0.777994
0.781975
0.784454
0.788585
0.793515
0.799783
0.80659
0.814116
0.821038
0.828474
0.835956
0.84379
0.850792
0.85865
0.868807
0.878465
0.882835
0.887463
0.895247
0.904327
0.909895
0.914353
0.919819
0.926612
0.93264
0.938223
0.943692
0.949095
0.954354
0.95945
0.964509
0.969354
0.973822
0.978184
0.982374
0.986401
0.990226
0.993952
0.997467
1.00088
1.00405
1.00718
1.01005
1.01288
1.01545
1.01798
1.02027
1.02249
1.02448
1.02645
1.02823
1.02988
1.03147
1.03287
1.03426
1.03541
1.03668
1.03762
1.03884
1.0394
1.04062
1.041
1.0422
1.04229
1.04356
1.04329
1.04479
1.0444
1.04585
1.04495
1.04686
1.04498
1.04746
1.04555
1.04785
1.0462
1.04861
1.04793
1.05164
1.04424
1.05261
1.04566
1.05686
1.04734
1.05602
1.05235
1.05856
1.05785
1.0617
1.06034
1.06484
1.0643
1.06393
1.05865
1.0562
1.05223
1.04863
1.04264
1.03876
1.03236
1.02843
1.02138
1.02533
1.01475
1.02275
1.00746
1.02356
1.0063
1.00742
1.00791
1.00566
1.008
1.01087
1.00866
1.00872
1.01094
1.00799
1.0056
1.0081
1.00753
1.00606
1.02355
1.00735
1.02273
1.01466
1.02522
1.02138
1.02854
1.03222
1.03842
1.0426
1.04875
1.05188
1.05668
1.05884
1.06382
1.06445
1.0653
1.06221
1.06338
1.06069
1.06479
1.05668
1.06659
1.05676
1.07178
1.05999
1.07002
1.06663
1.07313
1.07276
1.07756
1.07817
1.08193
1.08307
1.08636
1.0868
1.09007
1.09079
1.09397
1.09467
1.09748
1.09812
1.10085
1.10156
1.10377
1.10447
1.10702
1.10702
1.10819
1.1084
1.10989
1.11102
1.1125
1.11257
1.11389
1.11421
1.11501
1.11526
1.11559
1.11499
1.11462
1.11451
1.11443
1.11418
1.11384
1.11285
1.1118
1.11113
1.11017
1.10915
1.10795
1.1065
1.10479
1.10342
1.10161
1.09983
1.09734
1.09511
1.09283
1.09042
1.08767
1.08494
1.08219
1.079
1.07509
1.07105
1.06704
1.06316
1.05856
1.05391
1.04939
1.04474
1.03939
1.03411
1.02899
1.02358
1.01483
1.00608
1.00254
0.999673
0.99275
0.985115
0.977472
0.969939
0.962327
0.955011
0.946202
0.938424
0.930623
0.923927
0.915939
0.910178
0.903608
0.898888
0.892674
0.891089
0.888114
0.890069
0.893309
0.890444
0.903475
0.901245
0.910387
0.915145
0.920739
0.929489
0.93292
0.941424
0.945768
0.95655
0.959289
0.967939
0.971504
0.979083
0.982542
0.990476
0.994181
1.00156
1.00543
1.01247
1.01578
1.02393
1.02831
1.03714
1.04108
1.04928
1.05433
1.06324
1.0681
1.07718
1.08324
1.09344
1.10064
1.11084
1.11568
1.12613
1.13409
1.14536
1.15449
1.16801
1.17787
1.19179
1.20336
1.21917
1.23348
1.25074
1.26533
1.28632
1.30567
1.3296
1.35393
1.37853
1.39968
1.41823
1.42338
1.3935
1.34218
1.25309
1.14966
1.02589
0.934027
0.866042
0.837547
0.76519
0.708918
0.66162
0.64261
0.604392
0.589179
0.578506
0.56689
0.56715
0.561098
0.561787
0.563434
0.565101
0.565975
0.567223
0.568898
0.571464
0.574139
0.577295
0.580083
0.581126
0.582573
0.583174
0.583928
0.584752
0.586862
0.588099
0.588698
0.588891
0.588783
0.583866
0.583071
0.584663
0.585879
0.58733
0.588434
0.589547
0.590831
0.59315
0.594678
0.593273
0.588191
0.583984
0.580913
0.578698
0.579471
0.579168
0.579266
0.578944
0.578808
0.578146
0.576063
0.573502
0.572005
0.570562
0.56989
0.569687
0.5694
0.577989
0.592832
0.63477
0.72107
0.770803
0.77952
0.778192
0.782139
0.784614
0.788744
0.793653
0.799909
0.806729
0.814253
0.821168
0.828598
0.836073
0.843921
0.850931
0.858785
0.868876
0.878478
0.882908
0.887569
0.895302
0.904341
0.909923
0.914419
0.919897
0.926654
0.932683
0.938276
0.943731
0.949138
0.954392
0.959482
0.96454
0.969375
0.97385
0.978217
0.982397
0.986431
0.990258
0.993975
0.997488
1.00091
1.00408
1.0072
1.01007
1.0129
1.01547
1.018
1.02029
1.02251
1.0245
1.02647
1.02825
1.02991
1.03149
1.03289
1.03427
1.03543
1.0367
1.03763
1.03885
1.03943
1.04064
1.04102
1.0422
1.04231
1.04356
1.04334
1.04483
1.04438
1.04581
1.04488
1.04678
1.04512
1.04742
1.04587
1.04813
1.04599
1.0496
1.04672
1.05141
1.04661
1.05045
1.04748
1.05335
1.05105
1.05585
1.05694
1.06015
1.06183
1.06673
1.06452
1.06663
1.06519
1.06436
1.05857
1.0554
1.05228
1.04873
1.04273
1.0387
1.0323
1.02825
1.02132
1.02538
1.01427
1.02313
1.00618
1.02339
1.00523
1.00721
1.00732
1.0054
1.00729
1.01052
1.00854
1.00868
1.01056
1.00729
1.00536
1.00721
1.00743
1.00532
1.02334
1.00629
1.02309
1.01438
1.02536
1.02129
1.0284
1.03201
1.03834
1.04251
1.04878
1.05197
1.0562
1.05846
1.0641
1.06449
1.06576
1.06505
1.06643
1.0632
1.063
1.06129
1.06185
1.05953
1.06215
1.0627
1.06638
1.06699
1.0724
1.07189
1.07746
1.07698
1.08162
1.08233
1.08579
1.08627
1.08957
1.09044
1.09335
1.09415
1.09689
1.09771
1.10024
1.10117
1.10323
1.10406
1.10637
1.10646
1.10778
1.10805
1.10965
1.11048
1.11204
1.1121
1.11353
1.11401
1.11474
1.11482
1.11525
1.11483
1.11436
1.11419
1.11425
1.11402
1.1135
1.11265
1.11156
1.11091
1.10997
1.10896
1.10775
1.10636
1.10466
1.10328
1.10143
1.09964
1.09721
1.09502
1.09274
1.0903
1.08754
1.08484
1.0821
1.0789
1.07499
1.071
1.06702
1.06311
1.05852
1.05389
1.04937
1.0447
1.03938
1.03414
1.02898
1.02356
1.01494
1.00633
1.00269
0.999664
0.992787
0.985265
0.977659
0.970152
0.962565
0.955264
0.946499
0.938813
0.931039
0.924332
0.916452
0.910721
0.904239
0.899453
0.89348
0.891827
0.889053
0.890751
0.893815
0.890693
0.903371
0.902051
0.910931
0.915938
0.921724
0.930169
0.933601
0.942386
0.94608
0.957235
0.959261
0.96825
0.971257
0.979295
0.982607
0.990943
0.99458
1.00255
1.00634
1.01386
1.01703
1.02477
1.02885
1.03713
1.04114
1.04971
1.05504
1.06454
1.06949
1.07893
1.0844
1.09435
1.10095
1.11141
1.11745
1.12829
1.13596
1.14764
1.15639
1.16999
1.1801
1.19481
1.20566
1.22239
1.2364
1.25423
1.2699
1.28998
1.3084
1.33174
1.35315
1.37571
1.39328
1.39859
1.40998
1.38898
1.35494
1.27477
1.18919
1.08389
0.988976
0.912659
0.869927
0.80272
0.743111
0.686868
0.66445
0.623374
0.605753
0.590199
0.576554
0.575099
0.566516
0.567469
0.567972
0.569476
0.56952
0.570617
0.571675
0.574021
0.576259
0.579336
0.581911
0.583178
0.584333
0.584713
0.585818
0.586434
0.58809
0.58948
0.589867
0.590049
0.590238
0.585929
0.584049
0.58524
0.58659
0.587885
0.58901
0.590106
0.591363
0.593587
0.595136
0.594143
0.588705
0.584572
0.581687
0.579444
0.579913
0.579559
0.579697
0.579413
0.579122
0.578406
0.576416
0.574253
0.572671
0.571
0.570254
0.570014
0.569839
0.577986
0.592801
0.634902
0.721645
0.771642
0.77997
0.778419
0.782312
0.784852
0.788965
0.79385
0.800139
0.806941
0.814454
0.821369
0.828787
0.836245
0.844066
0.851138
0.859018
0.868962
0.878479
0.88301
0.887817
0.895493
0.904366
0.909967
0.914573
0.920055
0.926768
0.932755
0.938348
0.943826
0.949214
0.954486
0.95959
0.964614
0.969462
0.973943
0.978286
0.982475
0.986508
0.990328
0.994052
0.997567
1.00098
1.00415
1.00728
1.01014
1.01296
1.01553
1.01807
1.02035
1.02257
1.02456
1.02653
1.02831
1.02997
1.03154
1.03295
1.03433
1.03549
1.03676
1.03768
1.03891
1.03948
1.04068
1.04103
1.04224
1.04237
1.04373
1.04337
1.04478
1.04427
1.04559
1.04496
1.04678
1.04547
1.04842
1.04594
1.04871
1.04569
1.048
1.04702
1.0499
1.04745
1.0528
1.04628
1.05468
1.04943
1.05576
1.05333
1.05788
1.05724
1.0615
1.05982
1.06493
1.06455
1.06382
1.05894
1.05581
1.05262
1.04836
1.04237
1.03886
1.03237
1.02843
1.0214
1.02535
1.01474
1.02275
1.00752
1.02357
1.00631
1.00738
1.0079
1.00567
1.008
1.01074
1.00865
1.00878
1.01086
1.00799
1.0056
1.0081
1.00761
1.00597
1.02355
1.0073
1.02271
1.01463
1.02526
1.02142
1.02859
1.03215
1.03827
1.04242
1.04868
1.05203
1.05669
1.05917
1.06364
1.06447
1.06572
1.06264
1.06442
1.06127
1.06646
1.05969
1.06826
1.06099
1.07093
1.06345
1.07199
1.0681
1.07498
1.07308
1.07857
1.07781
1.08243
1.08243
1.08625
1.08646
1.08968
1.09045
1.09318
1.0941
1.09655
1.09756
1.09992
1.10091
1.10304
1.10379
1.10611
1.10623
1.10754
1.10786
1.10933
1.11022
1.11165
1.11186
1.11326
1.11383
1.11441
1.11461
1.11507
1.11462
1.11414
1.11396
1.11414
1.11377
1.1133
1.11236
1.11141
1.11075
1.10979
1.10877
1.10759
1.10621
1.10454
1.10314
1.10128
1.09949
1.09708
1.09492
1.09263
1.09016
1.08743
1.08475
1.08202
1.0788
1.0749
1.07092
1.06695
1.06303
1.05844
1.05386
1.04934
1.04466
1.03936
1.03411
1.02894
1.02347
1.01495
1.0065
1.00281
0.999664
0.992826
0.98537
0.977801
0.970323
0.962758
0.955444
0.946755
0.93911
0.931387
0.924728
0.916862
0.911239
0.90474
0.900075
0.893993
0.892517
0.889619
0.891445
0.894593
0.891936
0.904698
0.902386
0.911534
0.916131
0.921631
0.930385
0.934008
0.942417
0.946906
0.957412
0.960265
0.968658
0.972614
0.979893
0.983576
0.991315
0.99503
1.00236
1.00636
1.0134
1.0168
1.02514
1.02949
1.03829
1.04245
1.05078
1.05577
1.06475
1.06983
1.07882
1.08524
1.09526
1.1025
1.11268
1.118
1.12852
1.13673
1.14813
1.15769
1.17067
1.18077
1.19475
1.20672
1.2221
1.23639
1.25367
1.26883
1.28907
1.30783
1.32985
1.3512
1.37208
1.39038
1.39661
1.40692
1.37913
1.33902
1.26599
1.18255
1.07716
0.990279
0.915654
0.875513
0.805157
0.750552
0.699383
0.675323
0.631982
0.610908
0.598028
0.583514
0.581291
0.571516
0.571311
0.572498
0.572571
0.573348
0.572996
0.574672
0.575712
0.578667
0.580851
0.583844
0.584782
0.586003
0.586332
0.586763
0.587523
0.589179
0.590388
0.590766
0.591194
0.59073
0.586157
0.585087
0.586123
0.587146
0.588516
0.589512
0.5906
0.591833
0.594053
0.5956
0.594363
0.589516
0.58514
0.582061
0.579531
0.580067
0.579782
0.580151
0.579925
0.579366
0.578561
0.577148
0.574208
0.57283
0.571383
0.570525
0.570485
0.56997
0.577965
0.59253
0.634421
0.721902
0.773119
0.780784
0.77873
0.782605
0.785107
0.789207
0.794071
0.800321
0.807139
0.814645
0.821547
0.828968
0.83641
0.844267
0.851344
0.85921
0.869076
0.878497
0.883115
0.887946
0.895534
0.904375
0.909992
0.91464
0.920158
0.926808
0.93281
0.938433
0.943874
0.949274
0.95453
0.959609
0.964646
0.969458
0.973951
0.978323
0.982485
0.986528
0.990363
0.994061
0.997567
1.00099
1.00416
1.00728
1.01015
1.01297
1.01554
1.01806
1.02034
1.02256
1.02456
1.02653
1.02831
1.02998
1.03154
1.03296
1.03432
1.03549
1.03675
1.03768
1.03889
1.03949
1.04066
1.04105
1.04223
1.04236
1.0437
1.04335
1.04474
1.04432
1.04563
1.04512
1.04679
1.04537
1.04832
1.04585
1.04855
1.04657
1.04858
1.04661
1.0506
1.04826
1.05254
1.04836
1.05422
1.05221
1.05689
1.05569
1.05915
1.06052
1.06537
1.06355
1.06683
1.06557
1.06431
1.0588
1.05501
1.05237
1.04845
1.04229
1.03861
1.0323
1.02828
1.02132
1.02535
1.01426
1.02318
1.00617
1.0234
1.00529
1.00718
1.00733
1.0056
1.00731
1.0106
1.00847
1.00875
1.01057
1.00726
1.00527
1.00726
1.00751
1.0053
1.02333
1.00633
1.02308
1.01443
1.02539
1.02135
1.02852
1.032
1.03829
1.04236
1.04863
1.05222
1.05624
1.05891
1.06381
1.06455
1.066
1.06525
1.06682
1.06408
1.06459
1.06263
1.06422
1.06298
1.06538
1.06531
1.06874
1.06898
1.07327
1.07331
1.07726
1.07791
1.08098
1.08254
1.08517
1.08597
1.08903
1.08991
1.09283
1.09333
1.0964
1.09679
1.09963
1.10012
1.10261
1.10312
1.10541
1.1057
1.10701
1.10746
1.10891
1.10971
1.11128
1.11141
1.11285
1.11351
1.11404
1.11407
1.11478
1.11441
1.1138
1.11369
1.11387
1.11355
1.11291
1.11212
1.11109
1.11049
1.10951
1.10854
1.10734
1.10603
1.10435
1.10294
1.10104
1.09926
1.09693
1.09481
1.09249
1.09
1.08727
1.08463
1.0819
1.07866
1.07477
1.07087
1.06691
1.06296
1.0584
1.05383
1.0493
1.0446
1.03934
1.03415
1.02894
1.02347
1.01505
1.00673
1.00299
0.999673
0.992867
0.985542
0.978014
0.970567
0.963039
0.955748
0.94709
0.93957
0.931877
0.925193
0.917472
0.91185
0.905484
0.90067
0.894922
0.893268
0.890592
0.8923
0.895128
0.892216
0.904434
0.903431
0.912006
0.917104
0.922929
0.931232
0.934817
0.943582
0.947201
0.958229
0.960194
0.969039
0.972135
0.980172
0.983539
0.991906
0.995366
1.00346
1.00724
1.01495
1.01815
1.02603
1.03017
1.03824
1.04265
1.05115
1.05642
1.06611
1.07139
1.08091
1.0866
1.0965
1.10298
1.1131
1.11988
1.13068
1.13833
1.15056
1.15932
1.17267
1.1831
1.19767
1.20839
1.22518
1.23897
1.25635
1.27183
1.29137
1.3092
1.3304
1.34896
1.36863
1.38467
1.38962
1.39786
1.37558
1.34937
1.28192
1.20942
1.12034
1.03305
0.956757
0.905352
0.840411
0.782046
0.723939
0.697214
0.651341
0.628719
0.611129
0.593671
0.588716
0.576535
0.576126
0.575859
0.575169
0.57563
0.576016
0.577314
0.578283
0.580976
0.582963
0.585732
0.586726
0.587999
0.588019
0.588564
0.589084
0.590589
0.591527
0.59219
0.592134
0.592922
0.588357
0.58597
0.586712
0.588036
0.589163
0.590224
0.591255
0.592497
0.594571
0.59608
0.595444
0.590266
0.585976
0.58306
0.580486
0.580833
0.580448
0.580359
0.58017
0.580175
0.579333
0.577268
0.575045
0.573413
0.571904
0.571084
0.570892
0.570574
0.577858
0.592236
0.634058
0.722838
0.774463
0.781467
0.77909
0.782842
0.785452
0.789532
0.794322
0.800598
0.807413
0.81491
0.821813
0.8292
0.836625
0.844431
0.851573
0.859455
0.869149
0.878535
0.883249
0.888211
0.895755
0.904429
0.910081
0.91482
0.92031
0.926941
0.932879
0.938479
0.943969
0.949325
0.95461
0.959735
0.96471
0.969555
0.974058
0.978377
0.982553
0.986589
0.990408
0.994131
0.997642
1.00105
1.00423
1.00734
1.0102
1.01302
1.01558
1.01811
1.02039
1.02261
1.02461
1.02657
1.02835
1.03001
1.03158
1.03299
1.03436
1.03552
1.03679
1.0377
1.03892
1.03951
1.04071
1.04108
1.04225
1.04236
1.04365
1.04338
1.04487
1.04437
1.04581
1.04509
1.04675
1.04534
1.0475
1.04588
1.04915
1.04687
1.05003
1.04686
1.05004
1.049
1.05265
1.0486
1.05446
1.0521
1.05664
1.05468
1.05893
1.05766
1.06197
1.05984
1.06517
1.06484
1.06367
1.05921
1.05552
1.05268
1.04821
1.042
1.0388
1.03237
1.02839
1.02136
1.02529
1.01471
1.02273
1.00757
1.02356
1.00634
1.00735
1.00788
1.00567
1.00801
1.01069
1.00855
1.00889
1.01084
1.00802
1.00559
1.00813
1.00769
1.00592
1.02354
1.00723
1.02271
1.01463
1.02531
1.02157
1.02858
1.03222
1.03853
1.04235
1.04861
1.05251
1.05654
1.05952
1.06342
1.06445
1.0661
1.06282
1.06535
1.06182
1.06717
1.06179
1.06952
1.06329
1.07134
1.06581
1.07325
1.06984
1.07586
1.07412
1.07884
1.07823
1.08221
1.08252
1.08567
1.08628
1.08919
1.08987
1.09268
1.09329
1.09601
1.09663
1.09921
1.09994
1.10226
1.10293
1.10504
1.10544
1.1067
1.10727
1.10851
1.10939
1.11087
1.11115
1.11254
1.11323
1.11374
1.11381
1.11452
1.11408
1.11365
1.11335
1.11368
1.11328
1.11264
1.11179
1.11091
1.11025
1.10928
1.1083
1.10716
1.10585
1.1042
1.10274
1.10085
1.09909
1.09678
1.09468
1.09233
1.08982
1.08713
1.08453
1.08179
1.07852
1.07465
1.07076
1.06681
1.06284
1.05828
1.05379
1.04925
1.04454
1.03932
1.0341
1.02888
1.02335
1.01505
1.00694
1.00313
0.999675
0.992924
0.985672
0.97819
0.970782
0.963281
0.955972
0.947419
0.939937
0.932307
0.925688
0.917964
0.912494
0.906073
0.901432
0.895467
0.894098
0.891346
0.893056
0.895973
0.893668
0.905976
0.903702
0.912817
0.917298
0.92272
0.931325
0.935161
0.943428
0.948055
0.958347
0.961267
0.96935
0.973618
0.980543
0.984525
0.992053
0.995881
1.00328
1.00748
1.01459
1.01801
1.02641
1.03065
1.03927
1.04366
1.05215
1.05716
1.0662
1.07158
1.08043
1.0871
1.0969
1.10417
1.11436
1.12038
1.13089
1.13927
1.15078
1.16069
1.17298
1.18337
1.19716
1.20942
1.22442
1.23859
1.25543
1.27097
1.2899
1.30757
1.3276
1.34582
1.36424
1.37753
1.38455
1.39202
1.36663
1.33127
1.26968
1.20057
1.11129
1.03116
0.958017
0.910098
0.841606
0.788807
0.732774
0.706294
0.659747
0.634669
0.617871
0.600459
0.596566
0.582513
0.581873
0.581613
0.580443
0.579114
0.578919
0.579266
0.581376
0.582584
0.585595
0.587073
0.588883
0.589274
0.589741
0.589781
0.590842
0.591426
0.592913
0.593089
0.59328
0.593382
0.588769
0.587416
0.587705
0.588535
0.589849
0.590735
0.591815
0.59302
0.595096
0.596612
0.595723
0.591031
0.586606
0.58354
0.580498
0.581062
0.580803
0.580997
0.580884
0.580406
0.579431
0.577972
0.575423
0.573992
0.572319
0.571289
0.571452
0.570646
0.577782
0.59185
0.633453
0.723688
0.776243
0.782566
0.779478
0.783228
0.785783
0.78986
0.794632
0.80084
0.807687
0.81517
0.822054
0.829451
0.836847
0.844716
0.851858
0.859722
0.86933
0.878568
0.883393
0.88837
0.895788
0.904446
0.910108
0.91489
0.920447
0.92699
0.932959
0.938609
0.944037
0.949417
0.954666
0.959745
0.964761
0.969532
0.974046
0.978434
0.982563
0.986609
0.99046
0.994138
0.997628
1.00105
1.00422
1.00734
1.0102
1.01302
1.01558
1.0181
1.02037
1.02259
1.02459
1.02655
1.02833
1.03002
1.03157
1.03299
1.03434
1.03553
1.03677
1.0377
1.03889
1.03952
1.04068
1.04108
1.04221
1.04238
1.04361
1.0434
1.04487
1.04434
1.04578
1.04512
1.04663
1.0458
1.04766
1.04603
1.04921
1.04708
1.05011
1.04768
1.05047
1.04933
1.05262
1.05056
1.0545
1.05316
1.05687
1.05598
1.05964
1.05961
1.06415
1.06283
1.06677
1.06554
1.06423
1.05883
1.05483
1.05224
1.0483
1.04204
1.0386
1.03225
1.0283
1.02131
1.0253
1.01425
1.02321
1.00617
1.02341
1.00529
1.00717
1.00737
1.00549
1.00734
1.01059
1.00843
1.00877
1.01048
1.00715
1.00539
1.00728
1.00757
1.0053
1.02331
1.00634
1.02308
1.01446
1.02544
1.02117
1.02863
1.03216
1.03859
1.04247
1.0484
1.05268
1.05596
1.05941
1.06344
1.06463
1.06621
1.06552
1.06722
1.06502
1.06612
1.06424
1.06614
1.06499
1.06735
1.06791
1.0703
1.07087
1.07373
1.07434
1.0775
1.07819
1.08137
1.08187
1.08547
1.08512
1.08885
1.08937
1.09217
1.09286
1.09546
1.09625
1.09851
1.0994
1.10168
1.10216
1.10448
1.10476
1.10622
1.10675
1.10814
1.10887
1.11049
1.11068
1.11211
1.11269
1.11317
1.11332
1.11418
1.11367
1.11329
1.11313
1.11325
1.11295
1.11226
1.11148
1.11059
1.10993
1.10894
1.10804
1.10687
1.10563
1.10394
1.10248
1.10056
1.09882
1.09661
1.09451
1.09214
1.08963
1.08695
1.08438
1.08162
1.07832
1.07449
1.0707
1.06675
1.06275
1.05824
1.05374
1.04919
1.04446
1.03928
1.03413
1.02887
1.02337
1.01514
1.00715
1.00333
0.999701
0.992969
0.985866
0.978429
0.971056
0.963602
0.956328
0.947793
0.940462
0.932866
0.926198
0.91865
0.91316
0.906909
0.901997
0.896449
0.894777
0.892245
0.894116
0.896669
0.894069
0.905782
0.904948
0.913294
0.918374
0.924343
0.932288
0.936044
0.94474
0.948324
0.959207
0.961327
0.969907
0.973257
0.981268
0.984712
0.992929
0.996232
1.00432
1.00816
1.01604
1.01934
1.02743
1.03166
1.03957
1.04442
1.0526
1.05774
1.06744
1.07301
1.08254
1.0886
1.09862
1.10505
1.11477
1.12219
1.13288
1.14058
1.15312
1.16181
1.17498
1.18555
1.19961
1.21057
1.227
1.24064
1.25761
1.27264
1.29108
1.30788
1.32677
1.34255
1.35976
1.3735
1.37776
1.38248
1.35993
1.33214
1.28304
1.21799
1.14219
1.06456
0.992594
0.937044
0.873134
0.818519
0.757432
0.726745
0.680067
0.654682
0.631188
0.612539
0.603998
0.589507
0.587308
0.582803
0.583046
0.583198
0.58196
0.582041
0.583675
0.585008
0.587626
0.589042
0.590773
0.591088
0.591538
0.59137
0.592513
0.592796
0.594068
0.594242
0.594582
0.595603
0.590691
0.587931
0.588471
0.589513
0.590451
0.59139
0.592472
0.593747
0.59562
0.597269
0.596848
0.591859
0.587563
0.584528
0.581632
0.581537
0.581174
0.581535
0.581518
0.581006
0.579987
0.578682
0.575875
0.574432
0.573054
0.571979
0.572028
0.571437
0.577611
0.59143
0.632908
0.724725
0.778555
0.783494
0.779984
0.78352
0.786246
0.79025
0.794983
0.801186
0.808025
0.8155
0.822387
0.829737
0.837118
0.84491
0.852121
0.859989
0.869403
0.878655
0.883565
0.888664
0.896047
0.904532
0.910249
0.915096
0.920592
0.927148
0.933024
0.938624
0.944136
0.949446
0.954732
0.959889
0.964817
0.969642
0.974163
0.978466
0.982627
0.986651
0.990468
0.994199
0.997704
1.0011
1.00427
1.00739
1.01024
1.01305
1.0156
1.01813
1.0204
1.02262
1.02461
1.02656
1.02835
1.03001
1.03158
1.03299
1.03436
1.03553
1.03679
1.0377
1.0389
1.03951
1.04068
1.04106
1.04223
1.04237
1.04363
1.0434
1.04481
1.04435
1.04576
1.04511
1.04681
1.04578
1.04803
1.04634
1.0486
1.04692
1.05026
1.04782
1.05121
1.04905
1.05265
1.05094
1.05477
1.05274
1.05686
1.0555
1.05926
1.05882
1.0626
1.06004
1.06516
1.06478
1.06349
1.05927
1.05546
1.05228
1.04819
1.04199
1.03857
1.03227
1.02844
1.0214
1.02528
1.01466
1.02273
1.00759
1.02355
1.00655
1.00732
1.00787
1.00569
1.00805
1.01078
1.00845
1.00889
1.01077
1.00802
1.00554
1.00812
1.00777
1.0059
1.02353
1.00717
1.02271
1.01467
1.02536
1.02188
1.02863
1.0324
1.03887
1.04262
1.04824
1.05289
1.05631
1.05986
1.06318
1.06437
1.06641
1.06328
1.06634
1.06294
1.06795
1.06351
1.07046
1.06521
1.07238
1.06796
1.07407
1.07116
1.07639
1.07494
1.07935
1.07854
1.08251
1.08214
1.08578
1.0857
1.08923
1.08916
1.09229
1.09281
1.09516
1.09607
1.09806
1.09917
1.10132
1.10189
1.1041
1.10438
1.10574
1.10651
1.10774
1.10858
1.11017
1.11036
1.11178
1.11227
1.11296
1.11299
1.11376
1.11328
1.11306
1.11276
1.11298
1.11265
1.11194
1.11114
1.11031
1.10962
1.10868
1.10775
1.10666
1.10539
1.10374
1.10223
1.10035
1.09864
1.09642
1.09434
1.09193
1.0894
1.08679
1.08426
1.08146
1.07815
1.07437
1.07056
1.06661
1.06258
1.0581
1.05368
1.04912
1.04439
1.03925
1.03405
1.0288
1.02322
1.01513
1.0074
1.0035
0.999705
0.993044
0.986022
0.978636
0.971315
0.963894
0.956597
0.948193
0.940897
0.933412
0.926733
0.919377
0.913766
0.907763
0.902637
0.897445
0.895336
0.893117
0.894848
0.8975
0.895578
0.907292
0.90511
0.914241
0.91846
0.924094
0.932296
0.936307
0.944479
0.949114
0.959268
0.962284
0.969962
0.974441
0.98102
0.985456
0.992775
0.996877
1.00445
1.00874
1.01603
1.0194
1.02772
1.03188
1.04025
1.0448
1.05346
1.05859
1.06766
1.07342
1.08209
1.08889
1.09848
1.10572
1.11593
1.12278
1.13303
1.14149
1.15297
1.16306
1.17489
1.1857
1.19904
1.21151
1.22616
1.24001
1.25612
1.2717
1.28917
1.30549
1.32373
1.33922
1.35507
1.36657
1.37179
1.37617
1.35166
1.32483
1.26846
1.21149
1.13322
1.0628
0.991159
0.939844
0.873193
0.822768
0.764286
0.737179
0.686956
0.657626
0.638931
0.618224
0.61127
0.595326
0.591759
0.589546
0.586607
0.587123
0.585998
0.58543
0.585726
0.587856
0.589074
0.591473
0.592361
0.592909
0.593328
0.593056
0.593711
0.594175
0.595196
0.5955
0.59572
0.596049
0.591593
0.589678
0.58944
0.59011
0.590956
0.592181
0.593035
0.594484
0.596188
0.597775
0.597298
0.592627
0.588322
0.58499
0.581838
0.58222
0.582023
0.581732
0.581378
0.58174
0.580973
0.578279
0.576864
0.57524
0.573217
0.572268
0.572791
0.571513
0.577646
0.590825
0.632157
0.72544
0.781169
0.784702
0.780434
0.783985
0.786649
0.790664
0.795366
0.801508
0.808393
0.815844
0.822705
0.830064
0.837407
0.845286
0.852491
0.86034
0.869655
0.878706
0.883755
0.888857
0.896076
0.904564
0.910285
0.915176
0.92076
0.927208
0.933138
0.938799
0.944223
0.949581
0.954795
0.959882
0.964893
0.969599
0.974123
0.978544
0.982639
0.986672
0.990536
0.994196
0.997674
1.00109
1.00426
1.00738
1.01024
1.01304
1.0156
1.0181
1.02037
1.02258
1.02458
1.02654
1.02832
1.03001
1.03155
1.03299
1.03433
1.03553
1.03674
1.0377
1.03885
1.03951
1.04063
1.04107
1.04219
1.04236
1.04359
1.04344
1.04475
1.04441
1.04579
1.04518
1.04683
1.04589
1.04778
1.0469
1.04887
1.04734
1.0501
1.04863
1.05169
1.04981
1.05268
1.05205
1.05506
1.05384
1.05728
1.05669
1.05981
1.05964
1.06348
1.06152
1.06659
1.06533
1.0641
1.05869
1.05493
1.05164
1.04827
1.04208
1.03878
1.0321
1.02827
1.02129
1.02528
1.01426
1.02324
1.00612
1.0234
1.00532
1.00712
1.0073
1.00563
1.00737
1.0105
1.00831
1.00871
1.01047
1.00702
1.00533
1.00716
1.00762
1.00528
1.02329
1.0064
1.02309
1.01452
1.02537
1.0212
1.02876
1.03223
1.03906
1.04267
1.04862
1.05281
1.05599
1.05963
1.06319
1.06488
1.06632
1.06607
1.06751
1.06536
1.06725
1.0656
1.06752
1.0673
1.06908
1.06968
1.07179
1.07201
1.07498
1.07495
1.07808
1.07842
1.08156
1.08181
1.08506
1.08523
1.08793
1.08906
1.09162
1.09194
1.09493
1.0951
1.09787
1.09837
1.10086
1.1012
1.10348
1.10371
1.10529
1.10606
1.1074
1.10792
1.10961
1.10993
1.11129
1.1116
1.11236
1.11259
1.11318
1.11267
1.11266
1.11248
1.11245
1.11217
1.11148
1.11075
1.10999
1.10924
1.1083
1.10745
1.10631
1.10511
1.1034
1.10191
1.10002
1.09834
1.09622
1.09411
1.09168
1.08918
1.08659
1.08407
1.08124
1.07791
1.07418
1.07048
1.06652
1.06247
1.05806
1.05361
1.04902
1.04429
1.03919
1.03407
1.0288
1.02327
1.01521
1.0076
1.00372
0.999755
0.993106
0.986245
0.978905
0.971622
0.964259
0.956977
0.948672
0.941402
0.934011
0.927269
0.920057
0.914377
0.908491
0.903306
0.898389
0.896098
0.894084
0.895988
0.898356
0.895976
0.907346
0.90648
0.91473
0.919756
0.925793
0.933406
0.937262
0.945957
0.949487
0.96004
0.962656
0.970727
0.974612
0.982437
0.986067
0.994018
0.997287
1.00529
1.00914
1.01716
1.02058
1.02882
1.03317
1.04104
1.04625
1.05409
1.05925
1.06871
1.07448
1.08399
1.09046
1.10057
1.10703
1.11639
1.12427
1.13489
1.14295
1.15542
1.16394
1.17669
1.18731
1.20084
1.21239
1.22796
1.24143
1.25792
1.27242
1.28942
1.30496
1.32167
1.33513
1.35025
1.36063
1.36383
1.3675
1.34498
1.3204
1.27869
1.22328
1.15643
1.08832
1.01876
0.963716
0.90025
0.849366
0.790233
0.755644
0.707478
0.678662
0.652138
0.632236
0.617629
0.603656
0.598951
0.590972
0.590316
0.58961
0.588917
0.588617
0.588578
0.590084
0.591199
0.593547
0.59434