/*--------------------------------*- C++ -*----------------------------------*\
| =========                 |                                                 |
| \\      /  F ield         | OpenFOAM: The Open Source CFD Toolbox           |
|  \\    /   O peration     | Version:  v2006                                 |
|   \\  /    A nd           | Website:  www.openfoam.com                      |
|    \\/     M anipulation  |                                                 |
\*---------------------------------------------------------------------------*/
FoamFile
{
    version     2.0;
    format      ascii;
    class       volScalarField;
    location    "60";
    object      rho;
}
// * * * * * * * * * * * * * * * * * * * * * * * * * * * * * * * * * * * * * //

dimensions      [1 -3 0 0 0 0 0];


internalField   nonuniform List<scalar> 
93840
(
1.00628
1.00781
1.00564
1.00391
1.00622
1.00551
1.00473
1.01686
1.00588
1.01615
1.01062
1.01818
1.01553
1.01988
1.02324
1.0272
1.03031
1.03429
1.03607
1.0388
1.03703
1.03353
1.0256
1.02354
1.01878
1.01871
1.02063
1.02759
1.02099
1.02563
1.01412
1.03386
1.00647
1.02213
1.01748
1.02704
1.02311
1.03059
1.02778
1.03382
1.0321
1.03643
1.03492
1.0386
1.03787
1.04127
1.04091
1.0437
1.04325
1.046
1.04565
1.04768
1.04769
1.05009
1.04944
1.05051
1.04987
1.05143
1.05185
1.05336
1.05278
1.05385
1.05367
1.05438
1.05416
1.05446
1.05357
1.05344
1.05296
1.05277
1.05228
1.05202
1.05095
1.05003
1.04918
1.04831
1.04722
1.04613
1.0447
1.04321
1.04185
1.04027
1.03859
1.03643
1.0344
1.03239
1.03022
1.02782
1.02539
1.02295
1.02017
1.01686
1.01345
1.01006
1.00678
1.00295
0.999042
0.995246
0.991376
0.986925
0.982512
0.97828
0.97377
0.966707
0.959809
0.956829
0.954205
0.948511
0.94231
0.936227
0.930272
0.924335
0.918629
0.911927
0.906002
0.900246
0.89536
0.889661
0.885648
0.881222
0.878288
0.874347
0.873993
0.872651
0.875208
0.878446
0.877352
0.888154
0.887434
0.895622
0.899863
0.905496
0.912429
0.916221
0.92318
0.92748
0.93628
0.939311
0.946635
0.950047
0.956584
0.96021
0.966981
0.970778
0.977095
0.981045
0.987017
0.990291
0.996876
1.00101
1.00806
1.01163
1.01852
1.02314
1.03037
1.03457
1.04212
1.04695
1.05508
1.06086
1.06907
1.07306
1.08121
1.08744
1.09598
1.10265
1.11343
1.12061
1.13024
1.13834
1.15034
1.1606
1.17244
1.18163
1.1959
1.2089
1.22535
1.2428
1.2611
1.27674
1.2892
1.29901
1.27612
1.23155
1.13374
1.04677
0.933416
0.869395
0.833078
0.828608
0.763403
0.717147
0.682746
0.673059
0.645251
0.636037
0.62692
0.6179
0.617735
0.612233
0.613569
0.613572
0.6135
0.613451
0.613587
0.613591
0.614395
0.615413
0.616677
0.61746
0.616892
0.617021
0.616177
0.615585
0.6152
0.615689
0.615578
0.614691
0.613689
0.61277
0.607711
0.605975
0.606294
0.606199
0.606227
0.606137
0.605877
0.60592
0.60687
0.607182
0.605345
0.600437
0.596542
0.5933
0.590908
0.590567
0.589416
0.588796
0.587895
0.587128
0.585615
0.583693
0.581042
0.579417
0.577467
0.576566
0.575332
0.575193
0.580474
0.591861
0.621139
0.682181
0.719981
0.730439
0.732851
0.738343
0.74234
0.747252
0.752362
0.758303
0.764438
0.77109
0.777189
0.783656
0.790071
0.796728
0.802709
0.809233
0.817455
0.825435
0.829558
0.833679
0.840063
0.847489
0.852378
0.856345
0.861001
0.86662
0.871674
0.876337
0.880883
0.885361
0.889717
0.893933
0.898106
0.902137
0.905863
0.909487
0.912975
0.916331
0.919522
0.922597
0.925528
0.928343
0.93099
0.933536
0.935937
0.938236
0.940409
0.942461
0.944418
0.946203
0.947946
0.949525
0.951131
0.952415
0.953852
0.95487
0.956142
0.956929
0.958106
0.958675
0.959831
0.960066
0.961197
0.961225
0.962377
0.962223
0.963544
0.962944
0.964332
0.963558
0.964952
0.964199
0.965938
0.964599
0.966981
0.964709
0.967461
0.963972
0.966912
0.964181
0.965986
0.961419
0.966419
0.962515
0.966622
0.972096
0.986481
0.998709
1.01098
1.0204
1.0262
1.02379
1.02483
1.02441
1.0323
1.03653
1.03828
1.03609
1.03447
1.03038
1.02726
1.02252
1.01984
1.01576
1.01797
1.01033
1.01629
1.00504
1.01649
1.00384
1.00568
1.00557
1.00371
1.00507
1.00736
1.00614
1.00616
1.00739
1.00513
1.00373
1.00542
1.00578
1.00405
1.01662
1.00486
1.01645
1.01032
1.01789
1.01568
1.02002
1.02236
1.02723
1.0303
1.03451
1.03609
1.03893
1.03849
1.03647
1.02783
1.02562
1.0238
1.02133
1.01731
1.01508
1.01515
1.015
1.01375
1.01259
1.01553
1.01823
1.02059
1.02349
1.02426
1.0279
1.02781
1.03146
1.03148
1.03453
1.03403
1.03701
1.03678
1.03965
1.03947
1.04209
1.0418
1.04437
1.04411
1.04618
1.04606
1.04824
1.04766
1.0489
1.04849
1.04982
1.05012
1.05144
1.051
1.05207
1.05185
1.05259
1.05236
1.05261
1.05184
1.05173
1.05123
1.05112
1.0507
1.0504
1.04943
1.04858
1.04776
1.047
1.04597
1.04496
1.04362
1.04221
1.04092
1.03943
1.03784
1.0358
1.03385
1.03194
1.02992
1.02765
1.02531
1.02298
1.0204
1.01731
1.01408
1.01085
1.00781
1.00424
1.00055
0.996983
0.993423
0.989262
0.985142
0.981227
0.977062
0.97059
0.964236
0.961362
0.958898
0.953784
0.948162
0.942645
0.937235
0.931869
0.92672
0.920711
0.915394
0.910281
0.905939
0.900926
0.897417
0.893583
0.891023
0.887617
0.88743
0.886446
0.888843
0.892066
0.890969
0.901248
0.901071
0.908741
0.913032
0.918358
0.925121
0.928762
0.935637
0.939593
0.948284
0.951098
0.958282
0.961563
0.968058
0.971577
0.978136
0.981865
0.988159
0.992014
0.997841
1.00101
1.00722
1.01105
1.0176
1.02104
1.02767
1.03205
1.03894
1.04288
1.04999
1.05418
1.06153
1.06662
1.07428
1.07798
1.08547
1.09094
1.0985
1.10439
1.11413
1.12035
1.12955
1.13713
1.14823
1.15756
1.16914
1.179
1.19253
1.2048
1.21905
1.23395
1.24949
1.26481
1.27005
1.27746
1.25568
1.23313
1.16829
1.10375
1.01814
0.948945
0.895916
0.875468
0.822014
0.77533
0.733529
0.720311
0.691368
0.679755
0.66806
0.658102
0.658044
0.651376
0.652862
0.65272
0.651697
0.650715
0.65016
0.649244
0.649314
0.649782
0.650406
0.650405
0.649211
0.64859
0.646927
0.645865
0.644862
0.64465
0.644132
0.642629
0.641119
0.639818
0.634686
0.632225
0.631894
0.63142
0.631042
0.630554
0.62991
0.62944
0.629987
0.629898
0.627862
0.622515
0.618427
0.614967
0.612411
0.611621
0.61018
0.609433
0.608278
0.607123
0.605257
0.60327
0.600448
0.598671
0.596483
0.595317
0.59396
0.593675
0.598511
0.609838
0.637775
0.695445
0.729422
0.738106
0.739888
0.74503
0.748915
0.753685
0.758625
0.764318
0.770143
0.776444
0.782208
0.788316
0.794358
0.800618
0.806301
0.812481
0.820126
0.827438
0.83134
0.835342
0.841336
0.848149
0.852718
0.856503
0.860929
0.866194
0.870939
0.87534
0.879662
0.883894
0.888003
0.89199
0.895944
0.89974
0.903274
0.906731
0.91006
0.913258
0.916311
0.919272
0.922083
0.924796
0.927343
0.929818
0.932131
0.934369
0.936464
0.938471
0.940359
0.942118
0.943795
0.945357
0.946898
0.9482
0.949592
0.950669
0.951916
0.952774
0.953938
0.954598
0.955726
0.95608
0.957207
0.957374
0.958501
0.958425
0.959628
0.959259
0.96064
0.96012
0.961508
0.960594
0.962352
0.960688
0.962884
0.961045
0.963169
0.961273
0.963569
0.961996
0.965263
0.958915
0.965431
0.957981
0.969472
0.961835
0.973361
0.973814
0.9873
0.996848
1.01007
1.01514
1.02222
1.02228
1.02863
1.03431
1.03817
1.0362
1.03427
1.03025
1.02734
1.02304
1.01987
1.01539
1.01831
1.01057
1.01611
1.00594
1.01683
1.00462
1.00564
1.00613
1.00388
1.00566
1.00777
1.00624
1.00628
1.00781
1.00568
1.00393
1.00619
1.00565
1.00451
1.01697
1.00565
1.01616
1.01073
1.01816
1.01553
1.02017
1.02304
1.02713
1.03015
1.03445
1.03606
1.03948
1.03924
1.0389
1.03086
1.0264
1.02339
1.02151
1.01884
1.02254
1.01441
1.02287
1.01379
1.02618
1.01551
1.0248
1.02003
1.0267
1.02433
1.02948
1.02812
1.03226
1.03155
1.0351
1.03416
1.03747
1.03692
1.04
1.03957
1.04226
1.04191
1.04442
1.04422
1.04627
1.04615
1.04832
1.04778
1.04893
1.04861
1.04989
1.05025
1.05143
1.0511
1.05213
1.05201
1.05262
1.05249
1.05276
1.05207
1.05185
1.0515
1.05144
1.05101
1.05075
1.0498
1.04903
1.04832
1.04758
1.04662
1.04566
1.04439
1.04304
1.04184
1.04041
1.0389
1.03692
1.03507
1.03327
1.03136
1.02918
1.02694
1.02474
1.02233
1.01939
1.01629
1.01324
1.0104
1.007
1.00351
1.00018
0.996859
0.992919
0.989062
0.985428
0.981509
0.975395
0.969429
0.966819
0.964626
0.959904
0.954692
0.949606
0.944599
0.939646
0.934895
0.929325
0.924391
0.919689
0.915687
0.910991
0.907735
0.904139
0.90172
0.898376
0.898215
0.89717
0.899481
0.902711
0.901622
0.911805
0.911112
0.91857
0.922655
0.927594
0.934556
0.937937
0.944632
0.948661
0.956983
0.959936
0.966675
0.970151
0.976132
0.979574
0.985615
0.989135
0.994892
0.998525
1.00382
1.00694
1.01311
1.01685
1.02323
1.02666
1.03276
1.03671
1.04299
1.04684
1.05334
1.05782
1.06486
1.07017
1.07726
1.0807
1.08799
1.09385
1.10107
1.10736
1.117
1.12397
1.13307
1.14086
1.15137
1.16162
1.17304
1.18269
1.19627
1.2091
1.22466
1.24084
1.25665
1.27051
1.28433
1.28853
1.26614
1.23266
1.1737
1.10767
1.01839
0.953801
0.901318
0.880118
0.824644
0.780935
0.743494
0.727964
0.696594
0.683557
0.674804
0.665147
0.665396
0.660223
0.660885
0.661844
0.662867
0.663243
0.664006
0.664653
0.666295
0.667964
0.669293
0.670366
0.670037
0.669836
0.668685
0.667719
0.666858
0.666845
0.666315
0.664888
0.663334
0.661759
0.656257
0.653774
0.653415
0.652869
0.652508
0.651812
0.651061
0.650294
0.65064
0.650354
0.647948
0.642571
0.637994
0.634247
0.631229
0.630519
0.62903
0.627932
0.62642
0.625228
0.623554
0.620891
0.617803
0.615682
0.613586
0.612071
0.611027
0.609739
0.615662
0.624987
0.64965
0.70985
0.743398
0.750428
0.750964
0.755188
0.758422
0.762636
0.767105
0.772355
0.777795
0.783691
0.789089
0.794828
0.800526
0.806428
0.811801
0.81762
0.824864
0.831744
0.835393
0.839114
0.844757
0.851202
0.855516
0.859064
0.863234
0.868212
0.872732
0.876917
0.881028
0.885071
0.888979
0.892757
0.896534
0.900137
0.9035
0.906811
0.909991
0.91306
0.91599
0.918839
0.921542
0.924165
0.926617
0.929019
0.93125
0.933424
0.935442
0.937394
0.939209
0.940927
0.942537
0.944059
0.945531
0.946813
0.948142
0.949219
0.950415
0.951289
0.952407
0.95309
0.954178
0.954576
0.955666
0.955876
0.956964
0.956946
0.958106
0.957812
0.959159
0.958649
0.959993
0.959091
0.960806
0.959327
0.961379
0.959838
0.961935
0.95984
0.962952
0.96008
0.964106
0.959617
0.963208
0.959503
0.965026
0.962877
0.968395
0.971258
0.979078
0.987578
1.00221
1.01096
1.02113
1.02185
1.02681
1.03275
1.03678
1.03611
1.03432
1.03028
1.02734
1.02257
1.02021
1.01579
1.01811
1.01033
1.01625
1.005
1.01635
1.00375
1.00577
1.00565
1.00366
1.00505
1.00742
1.00608
1.00618
1.00743
1.0051
1.00376
1.00538
1.00585
1.00396
1.01676
1.00486
1.0165
1.01041
1.01792
1.01556
1.0198
1.02242
1.02711
1.03006
1.03446
1.0361
1.03946
1.03977
1.04016
1.03336
1.02832
1.02708
1.02546
1.02155
1.02084
1.01892
1.01904
1.01719
1.01892
1.01917
1.02175
1.02193
1.02592
1.02513
1.02937
1.02851
1.03222
1.03208
1.03505
1.0347
1.03759
1.03749
1.0401
1.03997
1.04244
1.04233
1.04461
1.04462
1.04652
1.04651
1.0485
1.04806
1.04929
1.04904
1.05037
1.05055
1.05176
1.05147
1.05255
1.05258
1.05314
1.05295
1.05328
1.05278
1.05248
1.05216
1.05219
1.05183
1.05145
1.05066
1.04989
1.04925
1.04854
1.04763
1.04669
1.04552
1.04423
1.04309
1.04168
1.04021
1.03833
1.0366
1.03489
1.03304
1.03091
1.02878
1.02671
1.02443
1.02158
1.01864
1.01577
1.01308
1.00981
1.00649
1.00336
1.00019
0.996443
0.992848
0.989384
0.985658
0.979902
0.974258
0.971788
0.969757
0.965335
0.96048
0.955702
0.95097
0.946291
0.941815
0.936494
0.931841
0.927339
0.923477
0.91896
0.915762
0.912277
0.909738
0.906541
0.906172
0.905212
0.90712
0.910158
0.908645
0.918583
0.918367
0.925408
0.929651
0.934478
0.941146
0.944299
0.951116
0.954427
0.963004
0.965154
0.972058
0.974836
0.981023
0.983965
0.990111
0.993223
0.999191
1.00229
1.00768
1.01029
1.01585
1.01886
1.0245
1.02762
1.03377
1.03772
1.0441
1.04759
1.05415
1.05813
1.06483
1.06955
1.07692
1.08105
1.08816
1.0939
1.10199
1.10774
1.11668
1.12399
1.13424
1.14151
1.15211
1.16169
1.1742
1.18443
1.19741
1.21001
1.22554
1.23863
1.25474
1.26444
1.26827
1.27805
1.2634
1.2425
1.18673
1.13162
1.05796
0.993455
0.936711
0.905329
0.854421
0.810693
0.764778
0.747983
0.713601
0.700282
0.686262
0.676513
0.674109
0.668181
0.66738
0.668874
0.668854
0.669967
0.669886
0.671598
0.673115
0.675267
0.67659
0.67877
0.680291
0.680752
0.680365
0.680686
0.680824
0.681138
0.681502
0.680511
0.679368
0.678219
0.673517
0.67034
0.669697
0.66929
0.668855
0.668157
0.667489
0.666644
0.666852
0.666497
0.664358
0.658479
0.653783
0.649947
0.646859
0.645791
0.644113
0.642914
0.641347
0.639872
0.638022
0.63521
0.632287
0.629898
0.627535
0.625715
0.62458
0.623077
0.628987
0.638011
0.661728
0.721899
0.757299
0.762809
0.762277
0.765551
0.768098
0.771653
0.775571
0.780379
0.785406
0.790894
0.795953
0.801343
0.806738
0.812281
0.817429
0.822974
0.829827
0.836329
0.839786
0.843366
0.848725
0.854754
0.858845
0.862266
0.866212
0.870931
0.875218
0.879206
0.883158
0.887025
0.890786
0.894405
0.897992
0.901456
0.904667
0.907813
0.910873
0.913822
0.916628
0.919383
0.921992
0.924525
0.926893
0.929218
0.931368
0.933477
0.935422
0.937319
0.939067
0.940735
0.942286
0.943759
0.945168
0.946409
0.947684
0.94873
0.949884
0.950736
0.95182
0.952482
0.953543
0.953936
0.954987
0.955189
0.956264
0.956272
0.957476
0.957098
0.958375
0.957832
0.959087
0.958389
0.960028
0.958795
0.961261
0.959129
0.961603
0.958909
0.961238
0.959657
0.962482
0.959724
0.964447
0.958373
0.965576
0.960747
0.966803
0.965342
0.97239
0.97612
0.988045
0.997334
1.01418
1.01935
1.02403
1.03101
1.03654
1.03625
1.03404
1.03003
1.02742
1.02326
1.01974
1.01533
1.01828
1.01062
1.01594
1.00612
1.01673
1.00453
1.00557
1.00604
1.00385
1.00562
1.00769
1.00621
1.00631
1.00775
1.00569
1.00397
1.00617
1.00557
1.00443
1.01699
1.00556
1.01617
1.01077
1.01829
1.01563
1.02006
1.02298
1.02703
1.02997
1.03444
1.03616
1.0396
1.04056
1.04187
1.03614
1.03008
1.02611
1.02592
1.02164
1.02572
1.01879
1.02609
1.01881
1.02742
1.02004
1.02783
1.02307
1.02968
1.0264
1.03193
1.02964
1.03442
1.03279
1.03686
1.03555
1.03903
1.03832
1.04122
1.04083
1.04332
1.04319
1.04544
1.04544
1.04739
1.04735
1.0493
1.04893
1.05009
1.04994
1.05112
1.05142
1.05249
1.05238
1.0534
1.05356
1.05399
1.05394
1.05429
1.05381
1.05352
1.05324
1.05336
1.05294
1.05261
1.05181
1.05116
1.05056
1.04986
1.04898
1.04809
1.04698
1.04578
1.04468
1.0433
1.04187
1.04007
1.03846
1.03682
1.03502
1.03297
1.03098
1.02904
1.02685
1.02409
1.02129
1.01859
1.01602
1.01286
1.00976
1.00681
1.00378
1.00021
0.996806
0.993507
0.989925
0.984462
0.979111
0.976807
0.974931
0.970728
0.966121
0.961567
0.957024
0.952518
0.948184
0.943019
0.93848
0.93407
0.930266
0.925696
0.922528
0.918924
0.916347
0.912882
0.91253
0.911275
0.913103
0.916088
0.914686
0.92457
0.923348
0.930521
0.934228
0.938767
0.945558
0.94864
0.955074
0.958776
0.966701
0.969241
0.975492
0.978677
0.984046
0.987
0.99244
0.995381
1.00053
1.00356
1.00846
1.01117
1.01701
1.0203
1.02625
1.0292
1.03492
1.03876
1.04494
1.04873
1.05481
1.05943
1.06641
1.0714
1.07831
1.08242
1.08941
1.09501
1.10293
1.10964
1.11832
1.12509
1.13442
1.14327
1.15339
1.16235
1.1745
1.1845
1.19817
1.21005
1.22498
1.23792
1.25293
1.26447
1.26754
1.27689
1.25546
1.23129
1.18154
1.12675
1.05459
0.991097
0.937611
0.907512
0.855363
0.812582
0.773686
0.753166
0.719385
0.701443
0.691437
0.677974
0.677544
0.668115
0.669054
0.669126
0.669846
0.669613
0.670282
0.671012
0.672588
0.674313
0.676856
0.678811
0.680201
0.680664
0.68148
0.681272
0.682555
0.683432
0.684693
0.684671
0.684914
0.684121
0.680233
0.678804
0.679141
0.679341
0.679877
0.67973
0.679804
0.679449
0.68005
0.679911
0.677757
0.672397
0.667489
0.663474
0.660079
0.659081
0.657424
0.656405
0.654827
0.653108
0.651095
0.648667
0.644862
0.642591
0.640185
0.638364
0.637004
0.635575
0.640537
0.649814
0.673433
0.73432
0.771467
0.776117
0.774657
0.777194
0.77899
0.78183
0.785122
0.789348
0.793942
0.798968
0.803633
0.808655
0.813734
0.818953
0.823808
0.82902
0.835547
0.841678
0.844937
0.848252
0.85328
0.859016
0.862883
0.866116
0.869862
0.874291
0.878387
0.882203
0.885927
0.889635
0.893224
0.896639
0.900069
0.903347
0.906401
0.909416
0.912312
0.91514
0.917832
0.920448
0.922941
0.925385
0.927654
0.929897
0.931963
0.933996
0.935863
0.937687
0.939365
0.940974
0.942461
0.943883
0.945229
0.946431
0.947639
0.948655
0.949744
0.950575
0.951601
0.952246
0.953254
0.953649
0.954649
0.954858
0.955888
0.95589
0.957054
0.956681
0.957917
0.957429
0.958658
0.95805
0.959563
0.958283
0.960719
0.95861
0.961018
0.959083
0.961134
0.95907
0.962532
0.960067
0.963826
0.959993
0.964771
0.962602
0.966907
0.966229
0.970894
0.974655
0.98494
0.992717
1.00901
1.01713
1.02225
1.02897
1.03497
1.03576
1.03401
1.02995
1.02736
1.02234
1.02011
1.01583
1.0181
1.0103
1.01627
1.00514
1.01624
1.00374
1.00554
1.0056
1.00372
1.00504
1.00748
1.00603
1.00624
1.00742
1.0051
1.00367
1.00532
1.00583
1.00392
1.01688
1.00495
1.01662
1.01068
1.01809
1.01555
1.01991
1.02254
1.02709
1.02992
1.0344
1.03629
1.03951
1.04066
1.04252
1.03892
1.03308
1.02982
1.02959
1.02479
1.02553
1.02245
1.02393
1.02213
1.02405
1.02347
1.02595
1.02586
1.02886
1.02862
1.03145
1.03168
1.03392
1.03471
1.03675
1.03692
1.03933
1.03952
1.04183
1.04176
1.04417
1.04402
1.04628
1.0462
1.04819
1.04814
1.04996
1.0498
1.05091
1.0509
1.05204
1.05231
1.05348
1.05334
1.0544
1.05465
1.05507
1.05494
1.05549
1.0551
1.05473
1.05453
1.05466
1.05432
1.05388
1.05325
1.05256
1.05204
1.05134
1.05054
1.04968
1.04869
1.04752
1.04647
1.04509
1.04373
1.04208
1.04058
1.03901
1.03725
1.03527
1.03343
1.03161
1.02951
1.02684
1.02425
1.02171
1.01924
1.01621
1.01328
1.01048
1.00756
1.00417
1.001
0.997803
0.994395
0.989188
0.984062
0.981873
0.980051
0.975999
0.971633
0.96721
0.962772
0.95836
0.954093
0.948928
0.94448
0.940015
0.936113
0.931508
0.928191
0.924513
0.921609
0.918229
0.917509
0.916256
0.917758
0.920336
0.918514
0.927874
0.927383
0.933866
0.937774
0.942244
0.948453
0.951256
0.957713
0.960451
0.96848
0.970078
0.97648
0.978767
0.984574
0.987084
0.992904
0.995447
1.00116
1.00392
1.00928
1.01169
1.01719
1.02019
1.02585
1.02905
1.03488
1.03874
1.04547
1.0492
1.05577
1.05987
1.06674
1.07131
1.07836
1.08282
1.09044
1.0959
1.10422
1.10995
1.11939
1.1265
1.13633
1.14331
1.15509
1.16385
1.17623
1.18577
1.19984
1.21026
1.22561
1.23608
1.24926
1.26029
1.26312
1.27047
1.25529
1.23912
1.19309
1.1456
1.08392
1.02351
0.969565
0.93119
0.884887
0.839148
0.795716
0.773238
0.737533
0.718108
0.705317
0.689121
0.686907
0.674984
0.675958
0.674303
0.674788
0.67412
0.675382
0.675606
0.67742
0.678902
0.681349
0.682798
0.684097
0.6844
0.685028
0.684712
0.685771
0.68623
0.687683
0.687677
0.688118
0.688124
0.685106
0.682448
0.683227
0.684021
0.685042
0.685542
0.68637
0.686988
0.688323
0.688959
0.688021
0.683037
0.678677
0.675159
0.672
0.671114
0.669421
0.668101
0.666522
0.665326
0.663236
0.66033
0.656952
0.654587
0.651911
0.65035
0.648488
0.647477
0.651737
0.660604
0.684689
0.747538
0.785742
0.789559
0.787556
0.789498
0.790844
0.793043
0.795677
0.799353
0.80349
0.808019
0.812276
0.816857
0.821618
0.826408
0.830995
0.835889
0.841992
0.8478
0.850861
0.854
0.858743
0.864052
0.867689
0.870777
0.87426
0.878426
0.882246
0.885823
0.889382
0.892863
0.896311
0.89959
0.902778
0.905923
0.908819
0.91161
0.914359
0.917039
0.919573
0.922081
0.924458
0.926782
0.928949
0.93109
0.933054
0.934998
0.936776
0.938532
0.940125
0.941667
0.943084
0.944437
0.945718
0.946858
0.948006
0.948966
0.950005
0.950786
0.951772
0.952365
0.953337
0.953693
0.954674
0.954845
0.955837
0.955801
0.956907
0.956564
0.957846
0.957298
0.958592
0.957834
0.959341
0.958037
0.959952
0.958388
0.961138
0.95902
0.96188
0.95896
0.961969
0.96031
0.963732
0.959939
0.964854
0.96223
0.966219
0.964536
0.969208
0.969328
0.977366
0.983006
0.999905
1.01161
1.01861
1.02692
1.03442
1.03584
1.03391
1.02975
1.02742
1.02306
1.01972
1.0154
1.01828
1.01057
1.01595
1.00611
1.01664
1.00449
1.00544
1.00596
1.00377
1.00561
1.00764
1.00613
1.0064
1.0077
1.00573
1.00395
1.00608
1.00564
1.00427
1.01702
1.00556
1.01617
1.01063
1.01794
1.01577
1.02021
1.02302
1.02724
1.02992
1.03436
1.03643
1.03963
1.0413
1.04344
1.04078
1.0359
1.02935
1.0309
1.02535
1.02923
1.02389
1.02945
1.02416
1.02999
1.02545
1.03084
1.028
1.03233
1.03068
1.0342
1.03336
1.03637
1.03616
1.03863
1.0386
1.04096
1.04095
1.04319
1.04321
1.04534
1.04543
1.04739
1.0476
1.04934
1.04953
1.0511
1.05113
1.05211
1.05227
1.05322
1.05362
1.05468
1.05472
1.05572
1.05605
1.05646
1.05641
1.05694
1.05655
1.05631
1.05601
1.05626
1.0559
1.0555
1.05486
1.05429
1.05376
1.05309
1.05233
1.05156
1.05062
1.04954
1.0485
1.04717
1.04589
1.04432
1.04295
1.04142
1.03971
1.03785
1.03616
1.03445
1.03241
1.02985
1.0274
1.025
1.02262
1.0197
1.01699
1.01432
1.0115
1.00826
1.00521
1.00211
0.998789
0.993814
0.988905
0.986777
0.984968
0.981006
0.976743
0.972368
0.967952
0.963531
0.959198
0.953989
0.949455
0.944871
0.940859
0.936026
0.932695
0.928669
0.925713
0.921836
0.921234
0.919521
0.92093
0.923195
0.921622
0.930693
0.929089
0.935771
0.939066
0.943006
0.94922
0.952052
0.958157
0.961562
0.968991
0.971253
0.977165
0.980184
0.985082
0.988009
0.993447
0.996155
1.00137
1.00437
1.00944
1.01177
1.0177
1.0207
1.02697
1.02985
1.03595
1.03931
1.04591
1.04964
1.05588
1.06021
1.06748
1.072
1.07937
1.0833
1.09095
1.09614
1.10494
1.11083
1.11983
1.12634
1.13668
1.14399
1.15499
1.16313
1.17609
1.18486
1.19922
1.20953
1.2241
1.23557
1.24762
1.25529
1.25983
1.26703
1.24841
1.22581
1.18337
1.13876
1.07582
1.0216
0.967043
0.934053
0.882082
0.843553
0.798743
0.778798
0.740861
0.721565
0.706767
0.693368
0.688873
0.678707
0.676903
0.67749
0.675713
0.675652
0.674375
0.675593
0.676515
0.678337
0.680118
0.682081
0.68288
0.683897
0.683799
0.684531
0.684751
0.6858
0.686547
0.687233
0.686983
0.687494
0.683325
0.682575
0.682319
0.68354
0.684207
0.685332
0.685909
0.687298
0.688497
0.690254
0.689304
0.685412
0.681565
0.678848
0.676088
0.676432
0.675717
0.675475
0.67467
0.673703
0.672053
0.670046
0.666693
0.664602
0.662078
0.660307
0.659036
0.657432
0.661897
0.670428
0.695177
0.760194
0.800377
0.803385
0.800517
0.802136
0.803092
0.804827
0.806974
0.810068
0.813847
0.817891
0.821728
0.825893
0.830329
0.834794
0.839044
0.843559
0.849321
0.854701
0.857572
0.860416
0.864776
0.869791
0.873161
0.876044
0.879354
0.88318
0.886786
0.890194
0.893466
0.896759
0.900003
0.903049
0.906075
0.908982
0.911706
0.914373
0.916904
0.919433
0.921843
0.924165
0.926382
0.928595
0.930639
0.932676
0.934537
0.936383
0.938064
0.939717
0.941227
0.942688
0.944025
0.945315
0.94652
0.947615
0.948683
0.949602
0.950557
0.951305
0.952208
0.95278
0.953672
0.95402
0.954928
0.955096
0.956017
0.955997
0.957019
0.956706
0.957934
0.957352
0.958619
0.95789
0.959259
0.958365
0.960017
0.958524
0.961136
0.95918
0.961832
0.959587
0.962129
0.960668
0.963566
0.96151
0.964772
0.963231
0.966317
0.965352
0.968861
0.969549
0.976216
0.981092
0.994554
1.00654
1.01523
1.02395
1.03252
1.03509
1.0339
1.02976
1.02733
1.02258
1.02008
1.01567
1.0181
1.0104
1.01618
1.00503
1.01617
1.0038
1.00551
1.00565
1.00355
1.00506
1.00752
1.00598
1.00623
1.00737
1.005
1.00375
1.00532
1.00586
1.00389
1.01698
1.00491
1.01671
1.0107
1.01806
1.01544
1.01971
1.02266
1.02732
1.03001
1.03421
1.03659
1.03927
1.04118
1.04352
1.04294
1.0392
1.03356
1.03341
1.03
1.02964
1.02787
1.02829
1.02754
1.0284
1.02901
1.02997
1.03074
1.03201
1.03285
1.03441
1.03532
1.03695
1.03767
1.03966
1.03974
1.04196
1.04243
1.04418
1.04466
1.04639
1.04683
1.0484
1.04885
1.05047
1.05061
1.0523
1.05227
1.0534
1.05353
1.05462
1.05491
1.05612
1.05609
1.05716
1.05744
1.05785
1.05788
1.05855
1.05813
1.05793
1.05775
1.05787
1.05762
1.05721
1.05666
1.0561
1.0556
1.05495
1.0543
1.05355
1.05274
1.05166
1.05068
1.04937
1.04818
1.04678
1.0455
1.04402
1.04236
1.04062
1.03906
1.03745
1.03547
1.03303
1.0308
1.0285
1.02619
1.0234
1.02082
1.01823
1.01547
1.01239
1.00949
1.00641
1.00323
0.998348
0.993524
0.991437
0.989533
0.985556
0.981374
0.976946
0.972476
0.967991
0.963579
0.958135
0.95357
0.948709
0.944349
0.939142
0.93567
0.931291
0.928023
0.923481
0.92306
0.920387
0.923263
0.923709
0.923057
0.930256
0.930882
0.935664
0.94068
0.943886
0.950789
0.952308
0.95977
0.961249
0.970281
0.970712
0.978325
0.979596
0.986387
0.987582
0.994688
0.99578
1.00279
1.00421
1.01121
1.01236
1.01932
1.02094
1.02799
1.02976
1.03702
1.03911
1.04732
1.04985
1.05823
1.06073
1.06926
1.07237
1.08055
1.08373
1.09297
1.09672
1.10707
1.111
1.12182
1.12726
1.13875
1.14482
1.15692
1.16411
1.17751
1.18578
1.19923
1.20959
1.22221
1.23241
1.2441
1.25346
1.25557
1.26025
1.24462
1.22646
1.19418
1.15071
1.10028
1.04613
0.994822
0.956064
0.90852
0.868008
0.820971
0.798071
0.759645
0.740519
0.720252
0.705921
0.697871
0.687208
0.683725
0.681208
0.680291
0.681794
0.679912
0.680532
0.680938
0.682889
0.68425
0.686157
0.686819
0.687756
0.687451
0.687926
0.688272
0.689034
0.689486
0.690139
0.689755
0.691164
0.686761
0.684467
0.685071
0.685843
0.686295
0.687564
0.688022
0.689426
0.69082
0.691766
0.691793
0.687322
0.684152
0.681302
0.679205
0.678618
0.678647
0.678455
0.67887
0.677774
0.677283
0.675361
0.673267
0.67093
0.670153
0.667764
0.668034
0.665495
0.670212
0.678896
0.704904
0.772216
0.814395
0.816242
0.812924
0.814174
0.815171
0.816637
0.818498
0.82122
0.824764
0.828425
0.831945
0.835653
0.839837
0.843869
0.847846
0.852009
0.857327
0.862423
0.86509
0.867725
0.871802
0.876378
0.879495
0.882183
0.885195
0.888766
0.892035
0.895156
0.898262
0.901257
0.904337
0.907274
0.910007
0.912767
0.915326
0.917716
0.920073
0.92241
0.924617
0.926822
0.928899
0.930946
0.932864
0.93477
0.936503
0.938233
0.9398
0.941371
0.942773
0.944147
0.945394
0.946592
0.947719
0.948728
0.949733
0.950574
0.951479
0.952151
0.953013
0.95351
0.954364
0.954647
0.955516
0.955624
0.956529
0.956444
0.957455
0.957092
0.958253
0.957686
0.958901
0.958161
0.959623
0.958566
0.960481
0.958897
0.960921
0.959232
0.962051
0.959783
0.962754
0.96054
0.963698
0.961785
0.965066
0.962968
0.96632
0.964857
0.968111
0.967899
0.97291
0.975018
0.987391
0.999966
1.00984
1.02086
1.03164
1.03474
1.03373
1.02968
1.02736
1.02254
1.01988
1.01557
1.01819
1.01064
1.016
1.00606
1.01659
1.00468
1.00548
1.00586
1.00372
1.00564
1.00773
1.00604
1.00641
1.0077
1.00568
1.00393
1.00602
1.00562
1.00414
1.01707
1.00549
1.01626
1.01068
1.01821
1.01613
1.02002
1.02326
1.02744
1.03014
1.0341
1.03674
1.03958
1.04171
1.04387
1.04342
1.04194
1.03479
1.03501
1.03086
1.03316
1.02948
1.03354
1.02964
1.03411
1.03091
1.03475
1.03273
1.03602
1.03496
1.03786
1.03725
1.03987
1.03951
1.04195
1.04184
1.04419
1.04399
1.0462
1.04635
1.04809
1.04845
1.04994
1.05047
1.05206
1.05223
1.05386
1.05386
1.05489
1.05524
1.05619
1.05662
1.05778
1.05782
1.05886
1.05914
1.05969
1.05967
1.06027
1.0599
1.05982
1.05956
1.05979
1.05955
1.05916
1.05861
1.05814
1.05764
1.05706
1.05643
1.05581
1.05502
1.05403
1.05304
1.05183
1.05075
1.04942
1.04823
1.04678
1.04518
1.0436
1.04218
1.04062
1.03871
1.03639
1.03426
1.03204
1.02977
1.02708
1.02469
1.02214
1.01942
1.01643
1.01353
1.01046
1.00725
1.00246
0.997744
0.995588
0.993504
0.989496
0.98522
0.9806
0.975963
0.971187
0.966369
0.960588
0.955738
0.950582
0.945919
0.940488
0.936721
0.93224
0.928661
0.92435
0.923379
0.920961
0.92352
0.924269
0.923934
0.931236
0.930933
0.93628
0.940465
0.94346
0.950605
0.95245
0.959571
0.961761
0.970215
0.971117
0.977895
0.980267
0.98603
0.987962
0.994591
0.996207
1.00284
1.0047
1.01089
1.01222
1.01931
1.02111
1.02847
1.03024
1.03773
1.03998
1.04742
1.05005
1.05743
1.06126
1.06893
1.07278
1.08142
1.08487
1.0929
1.09724
1.10697
1.11265
1.12135
1.12768
1.13732
1.14583
1.15664
1.16471
1.17637
1.18617
1.19791
1.20886
1.22125
1.23082
1.24154
1.24865
1.25203
1.25629
1.23859
1.22204
1.18375
1.14651
1.09167
1.04213
0.991692
0.954464
0.905905
0.868691
0.822381
0.802864
0.762184
0.7392
0.723591
0.707746
0.701466
0.688607
0.685519
0.683377
0.681959
0.681602
0.681368
0.679956
0.6809
0.681875
0.68352
0.684868
0.686045
0.686744
0.686575
0.687258
0.687144
0.688221
0.688917
0.689135
0.689448
0.689449
0.685368
0.684558
0.683986
0.684692
0.685677
0.68645
0.687164
0.688707
0.689987
0.690989
0.691094
0.686957
0.683668
0.680465
0.678254
0.678168
0.678428
0.677789
0.677902
0.677798
0.677636
0.674872
0.674261
0.672213
0.671097
0.669662
0.670491
0.668736
0.673993
0.683401
0.711216
0.781798
0.825793
0.82767
0.823815
0.825031
0.826061
0.82757
0.829458
0.83201
0.835634
0.83912
0.842474
0.845867
0.849897
0.853729
0.857455
0.861246
0.866269
0.870882
0.87342
0.875741
0.879404
0.883712
0.886523
0.88896
0.891826
0.895032
0.898066
0.901015
0.903789
0.906565
0.909371
0.912045
0.914631
0.917076
0.91944
0.921738
0.923822
0.925965
0.928035
0.929999
0.931871
0.933781
0.935537
0.937317
0.938925
0.940529
0.941976
0.943409
0.944706
0.945975
0.94712
0.948236
0.949266
0.950221
0.951126
0.95192
0.952718
0.953352
0.954104
0.954578
0.955322
0.955601
0.956363
0.956476
0.957286
0.957197
0.958121
0.957793
0.958827
0.958332
0.95947
0.958746
0.960134
0.959139
0.960741
0.959744
0.961457
0.959985
0.962272
0.960792
0.963336
0.961544
0.963971
0.963024
0.965506
0.964207
0.966922
0.966065
0.968631
0.968262
0.972622
0.973978
0.984242
0.994939
1.00545
1.01651
1.0291
1.03373
1.03367
1.02969
1.02746
1.02275
1.02017
1.01531
1.01815
1.0104
1.01625
1.00497
1.01611
1.00392
1.00548
1.00555
1.00358
1.00512
1.00745
1.00589
1.0062
1.00741
1.00489
1.00372
1.00525
1.0058
1.00378
1.01697
1.00497
1.01673
1.01088
1.01823
1.01559
1.02022
1.02271
1.02762
1.03017
1.03435
1.03665
1.03929
1.04143
1.04381
1.04505
1.04388
1.03954
1.0377
1.03507
1.03456
1.03332
1.03334
1.03341
1.03365
1.03431
1.03494
1.03548
1.0368
1.0371
1.03878
1.0392
1.04099
1.04128
1.04324
1.04351
1.045
1.04593
1.04754
1.0477
1.0498
1.04968
1.05173
1.05181
1.05372
1.05363
1.05543
1.0553
1.0566
1.05686
1.05802
1.05813
1.05948
1.05956
1.06064
1.06077
1.06143
1.06152
1.06205
1.06164
1.06173
1.06157
1.06167
1.06149
1.06116
1.06068
1.06027
1.05974
1.05923
1.05871
1.0581
1.05742
1.05641
1.05549
1.05434
1.05337
1.05221
1.05106
1.04965
1.04815
1.04668
1.04536
1.04385
1.04198
1.03978
1.03785
1.03566
1.03342
1.03083
1.02845
1.02589
1.02318
1.02022
1.01735
1.01428
1.01107
1.00615
1.00122
0.999031
0.996566
0.992165
0.987575
0.982708
0.977783
0.972746
0.967657
0.961686
0.956604
0.951336
0.946413
0.941047
0.937032
0.932745
0.928978
0.924975
0.923862
0.92169
0.92405
0.924774
0.923972
0.931146
0.931735
0.936717
0.941306
0.944704
0.951082
0.952942
0.960363
0.962117
0.97067
0.971517
0.978192
0.980295
0.986905
0.988446
0.995175
0.996725
1.00331
1.00526
1.0116