/*--------------------------------*- C++ -*----------------------------------*\
| =========                 |                                                 |
| \\      /  F ield         | OpenFOAM: The Open Source CFD Toolbox           |
|  \\    /   O peration     | Version:  v2006                                 |
|   \\  /    A nd           | Website:  www.openfoam.com                      |
|    \\/     M anipulation  |                                                 |
\*---------------------------------------------------------------------------*/
FoamFile
{
    version     2.0;
    format      ascii;
    class       volScalarField;
    location    "60";
    object      T;
}
// * * * * * * * * * * * * * * * * * * * * * * * * * * * * * * * * * * * * * //

dimensions      [0 0 0 1 0 0 0];


internalField   nonuniform List<scalar> 
93840
(
1.00242
1.00311
1.00231
1.00173
1.00179
1.00194
1.00154
1.00659
1.00153
1.00648
1.00406
1.007
1.00579
1.00848
1.00885
1.01113
1.01209
1.01383
1.01536
1.01699
1.02088
1.02946
1.03796
1.04056
1.04183
1.04299
1.03827
1.03405
1.03421
1.03608
1.03816
1.04556
1.0437
1.04068
1.04666
1.0436
1.04787
1.04562
1.04895
1.04733
1.05008
1.04869
1.05075
1.04978
1.05159
1.05098
1.0526
1.0521
1.05337
1.05316
1.05426
1.054
1.05502
1.05514
1.05578
1.05552
1.05601
1.05606
1.05687
1.05706
1.05742
1.05751
1.05799
1.05806
1.0585
1.05848
1.05867
1.05856
1.0589
1.05886
1.0592
1.0592
1.05933
1.05915
1.05937
1.05931
1.05946
1.0594
1.05942
1.05924
1.05932
1.05922
1.05925
1.059
1.05886
1.05872
1.05862
1.05843
1.05826
1.05809
1.05784
1.05742
1.05696
1.05652
1.05611
1.05555
1.05497
1.05445
1.05389
1.05319
1.05251
1.05189
1.05128
1.04966
1.04775
1.0475
1.04771
1.0466
1.04519
1.04375
1.04228
1.0407
1.0392
1.03705
1.03511
1.03299
1.03111
1.0286
1.02661
1.02423
1.0222
1.01954
1.01805
1.01614
1.01546
1.01545
1.01315
1.01582
1.0143
1.01521
1.016
1.01595
1.01777
1.01714
1.01876
1.01852
1.02085
1.02018
1.02174
1.02134
1.02253
1.0221
1.02336
1.02324
1.0243
1.0241
1.02503
1.02481
1.02591
1.02595
1.02733
1.02735
1.02841
1.0288
1.03027
1.03055
1.0318
1.03231
1.03409
1.0351
1.03674
1.03709
1.03884
1.03981
1.04174
1.04327
1.04557
1.04733
1.05037
1.0523
1.05537
1.05845
1.06235
1.06555
1.07019
1.07463
1.08079
1.08672
1.09329
1.09873
1.10366
1.10312
1.09976
1.07765
1.05634
1.01444
0.979729
0.952937
0.946514
0.947348
0.922154
0.904166
0.89281
0.892901
0.884154
0.885375
0.885112
0.885939
0.890955
0.893368
0.898865
0.902945
0.906952
0.910674
0.914626
0.91856
0.922029
0.925557
0.929787
0.933175
0.935892
0.938875
0.941418
0.943824
0.946531
0.94944
0.952126
0.954349
0.956128
0.957794
0.957629
0.959655
0.962311
0.964604
0.967026
0.969224
0.971557
0.973719
0.976105
0.978034
0.978532
0.977439
0.977166
0.97739
0.978285
0.98007
0.981301
0.982666
0.983974
0.984939
0.985742
0.985804
0.986017
0.986227
0.987037
0.987388
0.988817
0.988956
0.995313
1.00114
1.02188
1.05621
1.06909
1.06625
1.06141
1.05889
1.05646
1.05504
1.05441
1.05441
1.05487
1.05555
1.05617
1.05695
1.05786
1.05887
1.05962
1.06075
1.06271
1.06431
1.06411
1.06419
1.06548
1.06709
1.06747
1.06756
1.06811
1.06911
1.06987
1.07053
1.0712
1.07189
1.07255
1.07319
1.07386
1.07444
1.07495
1.07546
1.07594
1.0764
1.07682
1.07727
1.07766
1.07807
1.07841
1.07882
1.07912
1.07949
1.07973
1.08008
1.08025
1.08057
1.08067
1.08095
1.081
1.08128
1.08131
1.08163
1.08164
1.08196
1.08195
1.08229
1.08227
1.0826
1.08256
1.08292
1.08285
1.08322
1.08316
1.08342
1.08334
1.08361
1.08344
1.08374
1.08358
1.08381
1.08388
1.08402
1.08431
1.08448
1.0845
1.08591
1.08467
1.08612
1.08541
1.08904
1.08372
1.0775
1.06843
1.06016
1.04913
1.04107
1.03985
1.04034
1.0405
1.03942
1.03105
1.02108
1.01683
1.01543
1.01396
1.01209
1.01106
1.00946
1.0082
1.00543
1.00724
1.00391
1.00671
1.00118
1.00678
1.00141
1.00158
1.00178
1.00169
1.00219
1.00305
1.00242
1.00245
1.00306
1.00217
1.00162
1.00181
1.00154
1.00126
1.00663
1.00137
1.00654
1.00397
1.00732
1.00549
1.00814
1.0095
1.01101
1.01212
1.0139
1.01534
1.01638
1.01905
1.02683
1.03564
1.03915
1.04009
1.04394
1.04339
1.0449
1.04395
1.04343
1.0423
1.0419
1.04245
1.04393
1.04492
1.04581
1.04665
1.04744
1.04825
1.04883
1.04981
1.05007
1.05091
1.05111
1.05208
1.05225
1.0532
1.05334
1.05418
1.05439
1.0552
1.05526
1.05608
1.05627
1.05684
1.05675
1.05733
1.0574
1.05819
1.05836
1.05878
1.05896
1.05942
1.05954
1.05996
1.05996
1.06014
1.06005
1.06033
1.0603
1.0606
1.06055
1.06064
1.06042
1.06057
1.06046
1.06053
1.06039
1.06036
1.06013
1.06013
1.05992
1.05983
1.0595
1.05932
1.05907
1.05882
1.05849
1.05823
1.05795
1.05749
1.05685
1.05624
1.05563
1.05496
1.05414
1.05335
1.05258
1.05168
1.05068
1.04971
1.0487
1.04766
1.04557
1.04326
1.04273
1.04252
1.04082
1.03889
1.03683
1.03476
1.03253
1.03038
1.02748
1.02491
1.02207
1.01954
1.01632
1.01381
1.01079
1.00832
1.00521
1.00356
1.00141
1.0008
1.00075
0.998449
1.00151
0.999813
1.00138
1.00211
1.00256
1.00446
1.0041
1.00601
1.00594
1.00854
1.00789
1.00976
1.00942
1.01091
1.01063
1.01223
1.01224
1.01358
1.01356
1.01489
1.01488
1.01627
1.01652
1.0183
1.01855
1.02012
1.02092
1.02299
1.02365
1.02557
1.02661
1.02905
1.03052
1.033
1.0343
1.03702
1.03882
1.04192
1.0442
1.04747
1.05043
1.05468
1.0573
1.06135
1.06508
1.07005
1.0741
1.07881
1.08313
1.08801
1.09343
1.09872
1.10384
1.10689
1.10768
1.10161
1.08989
1.07462
1.04203
1.00985
0.978343
0.957351
0.947843
0.923726
0.901918
0.88229
0.876305
0.862802
0.858694
0.85402
0.851208
0.853303
0.852669
0.85617
0.859059
0.862079
0.865405
0.868927
0.872962
0.876811
0.880695
0.885378
0.88955
0.892839
0.896353
0.899391
0.902452
0.90551
0.908874
0.911961
0.914815
0.91711
0.919236
0.919457
0.921625
0.924533
0.927158
0.929934
0.932576
0.935356
0.938124
0.941022
0.94352
0.94459
0.943786
0.943643
0.944035
0.944952
0.946886
0.948444
0.950162
0.951825
0.952994
0.954133
0.954574
0.954996
0.955406
0.956272
0.956849
0.958521
0.958836
0.965554
0.972133
0.995893
1.03678
1.05569
1.05541
1.0515
1.04959
1.04745
1.04631
1.04599
1.0464
1.04732
1.04852
1.04964
1.05094
1.05236
1.05392
1.05518
1.05682
1.05936
1.06167
1.06194
1.06239
1.06408
1.06624
1.06705
1.06754
1.0684
1.06975
1.07084
1.07184
1.07279
1.07376
1.07472
1.07563
1.07653
1.07737
1.0781
1.0788
1.07946
1.08009
1.08066
1.08124
1.08175
1.08227
1.08272
1.0832
1.08359
1.08402
1.08434
1.08473
1.08498
1.08531
1.08548
1.08578
1.08589
1.08614
1.08622
1.08646
1.0865
1.08673
1.08674
1.08697
1.08696
1.08715
1.08715
1.08735
1.08732
1.0875
1.08746
1.0876
1.0876
1.08778
1.08771
1.08782
1.08782
1.08774
1.08783
1.08793
1.08792
1.08835
1.08826
1.08933
1.08948
1.08897
1.0903
1.09153
1.09014
1.0889
1.08492
1.08065
1.07218
1.0612
1.05111
1.04452
1.04169
1.0411
1.03432
1.02354
1.01737
1.01546
1.01389
1.01203
1.01111
1.0091
1.0084
1.00589
1.00689
1.00413
1.00654
1.00151
1.00662
1.00168
1.00177
1.00177
1.00177
1.00233
1.00307
1.00241
1.00242
1.0031
1.0023
1.00166
1.0019
1.00187
1.00154
1.00648
1.00169
1.00647
1.00389
1.00693
1.00576
1.0082
1.00897
1.01099
1.01209
1.01382
1.01528
1.01654
1.01886
1.02399
1.03258
1.0379
1.03793
1.04099
1.04107
1.04132
1.04167
1.04273
1.04238
1.04444
1.0438
1.04413
1.04569
1.04522
1.04728
1.04671
1.04868
1.04812
1.04995
1.04953
1.05091
1.0507
1.05195
1.0519
1.053
1.05298
1.05395
1.05403
1.05491
1.05496
1.05576
1.056
1.05654
1.0565
1.05702
1.05715
1.05787
1.05808
1.05848
1.0587
1.05912
1.05927
1.05964
1.05968
1.05981
1.05968
1.05992
1.0599
1.0601
1.06005
1.06005
1.05983
1.05991
1.05975
1.05975
1.05957
1.05948
1.0592
1.05911
1.05881
1.05865
1.05826
1.058
1.05764
1.05726
1.05683
1.05648
1.05607
1.05543
1.05465
1.05389
1.0531
1.05221
1.0512
1.05021
1.0492
1.04803
1.0468
1.04554
1.04421
1.04286
1.04043
1.0378
1.03694
1.03633
1.03422
1.03187
1.02934
1.02683
1.02414
1.02152
1.01816
1.01518
1.01189
1.009
1.00543
1.00269
0.999412
0.996858
0.993651
0.992067
0.989906
0.989535
0.989584
0.987601
0.990864
0.98917
0.991091
0.991859
0.992609
0.994577
0.99465
0.996603
0.99695
0.999546
0.999324
1.00131
1.00139
1.00302
1.00303
1.00493
1.0051
1.0067
1.00692
1.00861
1.00878
1.01068
1.01127
1.0136
1.01405
1.016
1.01699
1.01941
1.02031
1.02263
1.02403
1.02684
1.02847
1.03117
1.03237
1.03506
1.03678
1.04022
1.04256
1.04566
1.04795
1.05183
1.05478
1.05888
1.06185
1.06623
1.06987
1.07528
1.07987
1.08569
1.09114
1.09699
1.10166
1.10425
1.10465
1.10059
1.08885
1.06764
1.03791
1.00736
0.979267
0.960861
0.95163
0.927903
0.90778
0.889879
0.882748
0.867638
0.86193
0.857294
0.852277
0.852349
0.849861
0.850052
0.851309
0.852509
0.853344
0.854243
0.855932
0.857674
0.859535
0.862543
0.865322
0.867303
0.869724
0.87212
0.874511
0.876875
0.880057
0.882613
0.885409
0.887774
0.889723
0.88969
0.891853
0.894779
0.897391
0.900111
0.902766
0.905516
0.908559
0.91164
0.91439
0.915617
0.915371
0.915343
0.915908
0.916779
0.919037
0.920731
0.922497
0.92421
0.925753
0.927179
0.9278
0.928291
0.929058
0.929881
0.931084
0.932341
0.933841
0.938808
0.948549
0.977095
1.01581
1.03686
1.03877
1.03626
1.03569
1.03453
1.03423
1.03461
1.03567
1.0372
1.039
1.04065
1.04249
1.0444
1.04649
1.0482
1.05035
1.05336
1.05619
1.05688
1.05774
1.05983
1.06243
1.06359
1.06443
1.06564
1.06731
1.06869
1.06997
1.07117
1.07238
1.07358
1.07474
1.07585
1.07692
1.07786
1.07874
1.07957
1.08036
1.08108
1.08177
1.08241
1.08304
1.08359
1.08416
1.08464
1.08514
1.08555
1.08599
1.08632
1.08671
1.08696
1.0873
1.08749
1.08776
1.0879
1.08815
1.08823
1.08845
1.0885
1.08871
1.08874
1.08889
1.08892
1.08907
1.08907
1.0892
1.08919
1.08929
1.08932
1.08943
1.08939
1.08944
1.08948
1.08943
1.0895
1.08963
1.0896
1.08975
1.08999
1.09024
1.09055
1.09065
1.09058
1.09169
1.09153
1.09157
1.0903
1.08822
1.08281
1.07518
1.06437
1.05298
1.04456
1.04241
1.03656
1.025
1.01797
1.0156
1.01393
1.01208
1.01106
1.00951
1.00788
1.00544
1.00714
1.0039
1.00677
1.00118
1.00693
1.00148
1.00144
1.00167
1.00173
1.00223
1.00307
1.00244
1.00248
1.0031
1.00218
1.00159
1.00181
1.00157
1.00135
1.00647
1.00142
1.00649
1.00394
1.00731
1.00565
1.00844
1.00938
1.01093
1.01209
1.01384
1.01531
1.01611
1.01797
1.02302
1.03013
1.03641
1.03697
1.03994
1.04077
1.0413
1.04159
1.04201
1.04162
1.04242
1.0427
1.04368
1.04409
1.04531
1.04562
1.04671
1.04713
1.04786
1.04869
1.04902
1.04984
1.05009
1.05104
1.05119
1.0521
1.05224
1.05313
1.05326
1.05413
1.05419
1.05499
1.05519
1.05572
1.05573
1.05625
1.05644
1.05705
1.05731
1.05766
1.05793
1.05836
1.05848
1.05876
1.05883
1.05894
1.05879
1.05896
1.05898
1.05912
1.05902
1.05899
1.05874
1.05877
1.05858
1.05853
1.05833
1.05819
1.05786
1.0577
1.05735
1.05713
1.0567
1.05635
1.0559
1.05543
1.05494
1.05449
1.05395
1.05318
1.05229
1.05141
1.05045
1.04939
1.04824
1.04709
1.04586
1.0445
1.04309
1.04159
1.04002
1.03845
1.03576
1.03292
1.0318
1.03084
1.02844
1.0258
1.02297
1.02017
1.0172
1.01428
1.01068
1.00748
1.00399
1.00093
0.99727
0.994495
0.991188
0.988694
0.985592
0.984169
0.982147
0.981953
0.982043
0.980242
0.983439
0.982232
0.984355
0.985248
0.98635
0.988336
0.98867
0.990821
0.991253
0.994009
0.993893
0.996082
0.996328
0.998237
0.998619
1.00084
1.00136
1.00336
1.00404
1.00613
1.00666
1.00878
1.00981
1.01232
1.01315
1.01541
1.01669
1.01957
1.0209
1.02351
1.02483
1.02773
1.02936
1.03202
1.03367
1.03688
1.03844
1.04142
1.04392
1.04774
1.04992
1.05341
1.0562
1.061
1.06431
1.06816
1.07216
1.0773
1.08131
1.08666
1.09246
1.09641
1.10189
1.10275
1.10323
1.0994
1.09049
1.07419
1.05087
1.0245
0.995491
0.974322
0.960895
0.939489
0.916635
0.898126
0.888322
0.873561
0.865012
0.86002
0.852242
0.853123
0.847847
0.850293
0.849145
0.85142
0.85007
0.851812
0.851215
0.852782
0.853379
0.856258
0.857302
0.857247
0.858362
0.85941
0.860628
0.861358
0.863393
0.864971
0.8668
0.868525
0.870275
0.869953
0.871272
0.873888
0.876435
0.878942
0.881543
0.884068
0.887074
0.890132
0.89293
0.894311
0.894037
0.894138
0.894975
0.895781
0.897987
0.899778
0.901669
0.903431
0.905059
0.906561
0.907439
0.908214
0.909148
0.909908
0.911363
0.912635
0.914555
0.918916
0.929138
0.959461
0.999648
1.01894
1.0225
1.02118
1.02189
1.02181
1.02243
1.02357
1.02532
1.02742
1.02979
1.03193
1.03425
1.03657
1.03913
1.04124
1.0438
1.04716
1.0504
1.05147
1.05271
1.0551
1.05804
1.05952
1.06066
1.06216
1.06411
1.06574
1.06727
1.06869
1.07011
1.07151
1.07288
1.07419
1.07544
1.07658
1.07763
1.07861
1.07954
1.0804
1.08122
1.08197
1.0827
1.08335
1.084
1.08457
1.08515
1.08564
1.08615
1.08655
1.08699
1.08732
1.08771
1.08797
1.08829
1.08849
1.08877
1.0889
1.08914
1.08923
1.08945
1.08952
1.08968
1.08973
1.08987
1.0899
1.09004
1.09008
1.09014
1.09015
1.09025
1.09019
1.09033
1.09036
1.0904
1.09067
1.09051
1.09058
1.0905
1.09026
1.09104
1.09083
1.0914
1.09161
1.09172
1.09228
1.09231
1.09201
1.09114
1.08792
1.0831
1.07434
1.06265
1.05004
1.04434
1.03886
1.0271
1.01859
1.01579
1.01384
1.01198
1.01113
1.00891
1.00852
1.00597
1.00695
1.00408
1.0067
1.00139
1.00673
1.00177
1.0018
1.00185
1.00181
1.00237
1.00303
1.00242
1.00245
1.00309
1.00228
1.00163
1.00192
1.00202
1.00153
1.00645
1.00173
1.00644
1.00382
1.00684
1.0057
1.00836
1.00896
1.01094
1.01208
1.01377
1.01532
1.01644
1.01789
1.02089
1.02733
1.0346
1.0356
1.03752
1.0388
1.03971
1.04014
1.0411
1.04139
1.04235
1.04256
1.04296
1.04401
1.04399
1.04548
1.0452
1.04678
1.04641
1.04807
1.04763
1.04915
1.04875
1.05021
1.04991
1.05118
1.05102
1.05213
1.05211
1.05305
1.05313
1.05388
1.05414
1.05463
1.05471
1.05516
1.05538
1.05592
1.0562
1.05652
1.05683
1.05721
1.05732
1.05756
1.05765
1.0577
1.05754
1.05766
1.0577
1.05777
1.05765
1.05756
1.05732
1.0573
1.05709
1.057
1.05677
1.05657
1.05619
1.05596
1.05557
1.0553
1.05481
1.05437
1.05382
1.05328
1.05272
1.05216
1.05149
1.05059
1.04962
1.0486
1.04748
1.04627
1.045
1.04367
1.04224
1.04072
1.03915
1.03743
1.03567
1.03389
1.03097
1.02797
1.02662
1.02537
1.02276
1.01992
1.01688
1.0139
1.01075
1.00766
1.00396
1.00067
0.997126
0.994046
0.990456
0.987762
0.984564
0.982242
0.979308
0.978068
0.976235
0.97628
0.976534
0.975127
0.978506
0.977296
0.979595
0.980628
0.981745
0.983952
0.984574
0.986746
0.987619
0.99039
0.990738
0.992993
0.993803
0.995779
0.996529
0.998865
0.999647
1.00183
1.00278
1.0049
1.00556
1.008
1.009
1.01173
1.01287
1.01533
1.01638
1.01896
1.02011
1.02277
1.02436
1.02705
1.02903
1.03188
1.03286
1.0359
1.0381
1.04098
1.04331
1.04681
1.04949
1.05318
1.0555
1.05958
1.0637
1.0674
1.07119
1.07586
1.0808
1.08562
1.0915
1.09509
1.09958
1.10182
1.10184
1.0985
1.08749
1.07147
1.04952
1.02141
0.999173
0.976581
0.964738
0.941304
0.923663
0.903962
0.896645
0.878502
0.87093
0.864906
0.860673
0.857937
0.855416
0.853908
0.85559
0.854779
0.856237
0.854857
0.856424
0.855965
0.858157
0.858158
0.860098
0.859718
0.860928
0.86038
0.861275
0.860769
0.862088
0.862267
0.862845
0.863164
0.863487
0.861698
0.861937
0.863035
0.864287
0.865621
0.867273
0.868779
0.871047
0.873542
0.875997
0.876955
0.876737
0.876628
0.877291
0.877972
0.880113
0.881899
0.883829
0.885616
0.887089
0.888596
0.889743
0.890434
0.891436
0.892527
0.893729
0.895573
0.896778
0.902313
0.911844
0.94207
0.983089
1.00214
1.00601
1.00526
1.00696
1.00785
1.00943
1.0114
1.0139
1.01662
1.01962
1.02229
1.02512
1.02787
1.03091
1.03342
1.03641
1.04013
1.04374
1.04518
1.04679
1.04952
1.0528
1.05459
1.05602
1.05782
1.06007
1.06196
1.06374
1.06541
1.06704
1.06863
1.07023
1.07175
1.07318
1.07452
1.07577
1.07692
1.07801
1.07902
1.07997
1.08086
1.0817
1.08247
1.08322
1.08389
1.08455
1.08513
1.08572
1.0862
1.08671
1.08711
1.08756
1.0879
1.08828
1.08854
1.08886
1.08905
1.08933
1.08948
1.08972
1.08983
1.09002
1.0901
1.09026
1.09032
1.09046
1.09054
1.0906
1.09064
1.09075
1.09072
1.09088
1.0909
1.09088
1.09118
1.091
1.09108
1.09122
1.09098
1.09127
1.0915
1.09186
1.09204
1.09205
1.09272
1.09309
1.09306
1.09258
1.0909
1.08809
1.08166
1.07136
1.0573
1.04762
1.04114
1.02899
1.01937
1.01604
1.01396
1.01199
1.01095
1.00975
1.00801
1.0054
1.00712
1.00392
1.00679
1.00102
1.00705
1.00155
1.00163
1.00172
1.00188
1.00226
1.0031
1.00242
1.0025
1.00313
1.00215
1.00159
1.00193
1.00167
1.00138
1.00634
1.00136
1.00636
1.0037
1.00718
1.00571
1.00844
1.00925
1.0109
1.01208
1.01375
1.01537
1.01609
1.01753
1.02042
1.02467
1.03187
1.03441
1.03616
1.03834
1.03809
1.0393
1.03934
1.03996
1.04035
1.04089
1.04171
1.04203
1.04317
1.04344
1.04441
1.0448
1.04552
1.04623
1.04671
1.0473
1.04783
1.04848
1.04895
1.0495
1.05002
1.05054
1.05099
1.05154
1.05192
1.05245
1.05281
1.05325
1.05338
1.05382
1.05405
1.05455
1.05486
1.05513
1.05543
1.05581
1.05588
1.05604
1.05618
1.05621
1.05601
1.0561
1.05614
1.05617
1.05601
1.05589
1.05561
1.05556
1.05533
1.0552
1.05494
1.05468
1.05425
1.05396
1.05353
1.05319
1.05264
1.05211
1.05147
1.05086
1.05022
1.04955
1.04874
1.04774
1.04667
1.04551
1.04424
1.0429
1.04151
1.04002
1.03841
1.03676
1.03502
1.03311
1.0312
1.02924
1.02614
1.02304
1.0215
1.02002
1.01728
1.01431
1.01117
1.0081
1.00488
1.00173
0.998062
0.9948
0.991342
0.988334
0.984931
0.982394
0.979416
0.977279
0.974616
0.973579
0.971989
0.97226
0.972609
0.971369
0.974737
0.974171
0.976591
0.977957
0.9795
0.981842
0.982717
0.985244
0.986204
0.989415
0.989811
0.992379
0.993223
0.995528
0.996407
0.998994
0.999918
1.00229
1.0033
1.00562
1.00639
1.00868
1.00978
1.01208
1.01322
1.01572
1.01702
1.01974
1.02114
1.02381
1.02522
1.0279
1.02956
1.03222
1.03422
1.03691
1.03872
1.04196
1.04448
1.0476
1.05024
1.05398
1.05692
1.06068
1.06454
1.06811
1.07258
1.07628
1.08176
1.08551
1.09132
1.09555
1.09869
1.10015
1.10026
1.09582
1.08898
1.07445
1.05571
1.0336
1.00931
0.986789
0.972252
0.949737
0.931951
0.909795
0.90168
0.883133
0.875521
0.866459
0.86149
0.857052
0.854147
0.852309
0.854006
0.85237
0.853897
0.852875
0.854512
0.853654
0.855757
0.855601
0.857839
0.857665
0.859145
0.858386
0.859578
0.859009
0.860627
0.860174
0.861144
0.860513
0.861648
0.858781
0.858629
0.858736
0.859674
0.860038
0.860959
0.861423
0.862456
0.863796
0.865188
0.865443
0.864178
0.863409
0.863589
0.863818
0.865475
0.867089
0.868669
0.870443
0.872014
0.873493
0.874209
0.875322
0.875991
0.877271
0.878118
0.880343
0.881226
0.886642
0.896506
0.926051
0.966957
0.985644
0.98975
0.989248
0.991569
0.993181
0.995572
0.998295
1.00156
1.00488
1.00853
1.01174
1.01511
1.01826
1.02181
1.02476
1.02819
1.03225
1.03625
1.03806
1.04006
1.0431
1.04673
1.04886
1.05058
1.05267
1.05523
1.05739
1.05944
1.06138
1.06324
1.06504
1.06686
1.0686
1.07024
1.07178
1.07324
1.07458
1.07584
1.07703
1.07814
1.07916
1.08013
1.08103
1.0819
1.08268
1.08344
1.08412
1.08479
1.08537
1.08595
1.08644
1.08696
1.08737
1.08782
1.08815
1.08854
1.08879
1.08912
1.08932
1.0896
1.08977
1.08999
1.09012
1.09031
1.0904
1.09056
1.09065
1.09076
1.09085
1.09096
1.09098
1.0911
1.09112
1.09113
1.0912
1.09129
1.09157
1.0916
1.09165
1.09167
1.09155
1.09236
1.09227
1.09236
1.09287
1.0934
1.09358
1.09346
1.09257
1.09112
1.08656
1.07817
1.06527
1.05261
1.04423
1.03144
1.02039
1.01625
1.01382
1.0119
1.01108
1.0091
1.00851
1.00586
1.00688
1.00409
1.00667
1.00145
1.00681
1.00184
1.0019
1.00192
1.00188
1.00239
1.00303
1.0024
1.00248
1.00311
1.00228
1.00163
1.00204
1.00203
1.00164
1.0064
1.00166
1.00644
1.00396
1.00723
1.00571
1.00821
1.00899
1.01099
1.01206
1.01377
1.01552
1.01626
1.0175
1.01914
1.02274
1.02916
1.03251
1.03342
1.03556
1.03686
1.03702
1.03892
1.03821
1.04014
1.03935
1.04114
1.0407
1.04217
1.04214
1.04316
1.04342
1.04423
1.04474
1.04529
1.04591
1.04633
1.04699
1.04743
1.048
1.04848
1.04897
1.04948
1.04996
1.05044
1.05088
1.05131
1.05167
1.05188
1.05226
1.0525
1.05293
1.05327
1.0535
1.05382
1.05414
1.05422
1.05433
1.05447
1.05444
1.05428
1.0543
1.05436
1.05434
1.05414
1.05397
1.0537
1.0536
1.05336
1.05319
1.05287
1.05256
1.05208
1.05173
1.05126
1.05086
1.05023
1.0496
1.04888
1.0482
1.04748
1.04669
1.04576
1.04466
1.0435
1.0422
1.04079
1.03933
1.03784
1.03618
1.03444
1.03267
1.0308
1.02874
1.02671
1.02459
1.02137
1.01823
1.01657
1.01493
1.01215
1.00914
1.00599
1.00292
0.99974
0.996636
0.993112
0.989974
0.986701
0.983875
0.980703
0.97834
0.975668
0.97377
0.971395
0.970543
0.969358
0.969732
0.970512
0.969667
0.973441
0.972674
0.975469
0.976818
0.978487
0.981147
0.982258
0.984627
0.985953
0.989015
0.989718
0.992001
0.9933
0.995391
0.996473
0.998596
0.999724
1.0019
1.00309
1.0051
1.00617
1.00856
1.00975
1.01198
1.01341
1.01564
1.01717
1.0194
1.02089
1.02325
1.02536
1.02756
1.03001
1.03242
1.03423
1.03661
1.03935
1.04149
1.04489
1.04747
1.05063
1.05321
1.05719
1.06011
1.06487
1.06745
1.07267
1.07562
1.08105
1.08455
1.08923
1.09348
1.09738
1.099
1.09864
1.09469
1.08603
1.07293
1.05428
1.03297
1.00935
0.990665
0.974353
0.954113
0.935099
0.917408
0.906902
0.890514
0.879571
0.87422
0.866003
0.866002
0.858269
0.85961
0.858481
0.859008
0.857118
0.858451
0.857418
0.859367
0.858842
0.861019
0.860708
0.862351
0.861641
0.862447
0.861583
0.862856
0.862387
0.863615
0.863011
0.863602
0.863108
0.861623
0.860587
0.861333
0.86101
0.862091
0.861967
0.862818
0.862826
0.86434
0.864336
0.864237
0.862299
0.860675
0.859603
0.858611
0.859009
0.859535
0.860129
0.860989
0.861514
0.86218
0.862585
0.863099
0.863662
0.864427
0.865187
0.867102
0.867991
0.872918
0.882794
0.911209
0.951978
0.969846
0.974086
0.973717
0.976426
0.978446
0.981402
0.984705
0.988608
0.99243
0.996671
1.0004
1.00431
1.00785
1.01188
1.01527
1.01916
1.02356
1.02792
1.03011
1.03249
1.03586
1.03984
1.04231
1.04434
1.04673
1.0496
1.05207
1.05439
1.0566
1.05872
1.06074
1.06278
1.06477
1.06661
1.06838
1.07006
1.07161
1.07306
1.07443
1.07571
1.07691
1.07802
1.07906
1.08006
1.08097
1.08184
1.08263
1.0834
1.08409
1.08476
1.08534
1.08593
1.08644
1.08695
1.08737
1.08782
1.08814
1.08853
1.0888
1.08913
1.08935
1.08961
1.0898
1.09002
1.09016
1.09036
1.09048
1.09062
1.09075
1.09086
1.09092
1.09106
1.09108
1.09124
1.09129
1.0913
1.09163
1.09163
1.09178
1.0918
1.09181
1.09229
1.09242
1.09261
1.093
1.09336
1.09371
1.09388
1.0937
1.09289
1.09008
1.08332
1.07261
1.05861
1.04827
1.03406
1.02161
1.01657
1.01393
1.01193
1.01097
1.00946
1.00807
1.00555
1.00707
1.00381
1.00691
1.00114
1.00713
1.00147
1.00164
1.00171
1.00194
1.00226
1.00304
1.00244
1.00253
1.00309
1.00214
1.00163
1.00195
1.00169
1.00141
1.00622
1.00143
1.00627
1.00373
1.00724
1.00564
1.00875
1.00929
1.01097
1.0121
1.01372
1.01551
1.01606
1.01751
1.01909
1.02079
1.02599
1.03092
1.03272
1.034
1.03543
1.03538
1.03681
1.03644
1.03787
1.0378
1.03916
1.03893
1.04043
1.04017
1.04166
1.04141
1.04283
1.0426
1.04406
1.04365
1.045
1.04503
1.04596
1.04614
1.04689
1.04721
1.04779
1.0482
1.04875
1.04907
1.04959
1.04988
1.05015
1.05051
1.05075
1.05115
1.05148
1.05169
1.05198
1.05225
1.05229
1.05241
1.05256
1.0525
1.05233
1.05236
1.05235
1.05231
1.05207
1.05188
1.05159
1.05146
1.05118
1.05097
1.05061
1.05024
1.04971
1.04931
1.04879
1.04831
1.0476
1.04688
1.04609
1.04534
1.04452
1.04361
1.04258
1.04139
1.04014
1.03871
1.03719
1.03563
1.03404
1.03225
1.0304
1.02855
1.02656
1.0244
1.02231
1.02008
1.01682
1.01372
1.012
1.01028
1.00752
1.00458
1.00152
0.998539
0.995466
0.992474
0.989205
0.986253
0.983299
0.980778
0.97818
0.975941
0.973818
0.971955
0.970727
0.969358
0.969423
0.968429
0.970726
0.968595
0.97369
0.97214
0.976091
0.976286
0.979294
0.980541
0.98292
0.984338
0.986552
0.988586
0.990331
0.991394
0.993528
0.99481
0.997093
0.998231
1.00045
1.00153
1.00393
1.00477
1.0069
1.00796
1.0105
1.01127
1.01423
1.01502
1.01793
1.01921
1.02206
1.02297
1.02628
1.02746
1.03047
1.03168
1.03549
1.03652
1.03999
1.0416
1.04573
1.04738
1.05172
1.05344
1.05743
1.06058
1.06574
1.06803
1.07324
1.07659
1.08126
1.08555
1.08937
1.09297
1.09576
1.09732
1.09699
1.09264
1.08616
1.07442
1.05847
1.0381
1.01762
0.99776
0.980105
0.961051
0.942985
0.922605
0.910627
0.895243
0.884084
0.876342
0.867716
0.865486
0.857828
0.858982
0.855543
0.857054
0.855387
0.855933
0.855273
0.857162
0.856665
0.858788
0.858465
0.860158
0.859443
0.860479
0.859642
0.860869
0.860329
0.86161
0.861047
0.862018
0.861737
0.860111
0.858961
0.858992
0.859544
0.860345
0.860123
0.861123
0.861219
0.862193
0.863397
0.862755
0.861108
0.858818
0.857956
0.856341
0.856942
0.856371
0.857145
0.856597
0.857225
0.856342
0.856848
0.855344
0.856172
0.855108
0.856558
0.856285
0.858664
0.861832
0.871165
0.897863
0.9385
0.955991
0.959879
0.959478
0.962348
0.964516
0.967688
0.971269
0.975604
0.979704
0.984397
0.98851
0.99292
0.996761
1.00123
1.00504
1.00937
1.01408
1.01882
1.02136
1.02413
1.02781
1.03212
1.03497
1.03731
1.03999
1.04318
1.04595
1.04856
1.05107
1.05347
1.05573
1.05799
1.06023
1.06231
1.06428
1.0662
1.06799
1.06964
1.07122
1.0727
1.07407
1.07535
1.07655
1.07768
1.07874
1.07974
1.08066
1.08154
1.08234
1.08311
1.08379
1.08448
1.08508
1.08568
1.08617
1.0867
1.08711
1.08756
1.0879
1.08829
1.08858
1.0889
1.08913
1.08941
1.0896
1.08983
1.09001
1.09018
1.09033
1.09049
1.09058
1.09075
1.09085
1.09098
1.09114
1.09119
1.09125
1.09141
1.09169
1.09173
1.09187
1.09214
1.0923
1.09269
1.09295
1.09323
1.0937
1.09394
1.09415
1.09393
1.09219
1.0872
1.07876
1.06482
1.05312
1.03762
1.02309
1.01696
1.01399
1.01196
1.01092
1.00951
1.00839
1.00574
1.00696
1.00398
1.00662
1.00152
1.00685
1.00186
1.00182
1.002
1.00196
1.00239
1.00303
1.0024
1.00246
1.00304
1.00233
1.00161
1.00209
1.00213
1.00175
1.00635
1.00167
1.00635
1.00395
1.00701
1.00566
1.00844
1.00893
1.01112
1.01212
1.01367
1.01558
1.01609
1.01742
1.01849
1.02007
1.02349
1.02753
1.03026
1.03112
1.03367
1.03306
1.03572
1.03454
1.037
1.03594
1.03799
1.03721
1.03896
1.03863
1.03998
1.0398
1.04101
1.04101
1.04207
1.0421
1.04314
1.04327
1.04405
1.0444
1.04491
1.04542
1.04582
1.04636
1.04681
1.04719
1.04767
1.04794
1.0482
1.04859
1.0488
1.04918
1.04953
1.04967
1.04997
1.05016
1.05026
1.05031
1.05044
1.05036
1.05023
1.05021
1.05018
1.05011
1.04982
1.04961
1.0493
1.04915
1.04883
1.04858
1.04816
1.04774
1.04717
1.04671
1.04613
1.04558
1.04478
1.04398
1.04313
1.04231
1.04139
1.04038
1.03924
1.03797
1.03665
1.0351
1.03349
1.03186
1.0302
1.0283
1.02639
1.02449
1.02245
1.02025
1.01814
1.01586
1.01264
1.00967
1.00795
1.00624
1.00358
1.00081
0.997996
0.995236
0.99249
0.989887
0.987095
0.984471
0.981936
0.979716
0.977552
0.975493
0.973743
0.971977
0.970892
0.969629
0.969765
0.968953
0.971037
0.969308
0.974287
0.97226
0.97646
0.976601
0.979472
0.980739
0.983051
0.984271
0.986849
0.988716
0.990903
0.991887
0.994055
0.994918
0.997463
0.998173
1.00067
1.0016
1.00402
1.00509
1.0071
1.00825
1.01054
1.01146
1.01413
1.01516
1.01789
1.01932
1.02226
1.02332
1.02604
1.02764
1.0307
1.03191
1.03494
1.03673
1.04032
1.04155
1.0453
1.04774
1.05145
1.05426
1.05732
1.0601
1.06465
1.06779
1.0721
1.07618
1.07993
1.08391
1.08807
1.09144
1.09443
1.09565
1.09542
1.09129
1.08411
1.07156
1.05667
1.03806
1.01983
0.999461
0.984682
0.96389
0.947135
0.929357
0.918187
0.901298
0.889644
0.882999
0.87351
0.871417
0.864536
0.863227
0.862694
0.860179
0.861387
0.86003
0.860981
0.860223
0.862116
0.861823
0.86363
0.863441
0.863362
0.864184
0.86293
0.864026
0.863348
0.863958
0.864126
0.864053
0.864529
0.863174
0.861398
0.861772
0.861861
0.861857
0.862671
0.863017
0.863188
0.864056
0.8651
0.864278
0.862684
0.860537
0.85969
0.857846
0.858518
0.857898
0.858278
0.857612
0.858279
0.857352
0.856871
0.855549
0.85574
0.854148
0.854562
0.854285
0.854616
0.857051
0.864536
0.888838
0.927911
0.945962
0.948085
0.947341
0.950248
0.952288
0.955403
0.958897
0.963338
0.9674
0.97226
0.976533
0.981316
0.985303
0.99011
0.99421
0.998947
1.00391
1.00898
1.01183
1.01498
1.01896
1.02359
1.0268
1.02949
1.03244
1.03595
1.03905
1.04193
1.04474
1.04745
1.04995
1.05245
1.05495
1.05727
1.05947
1.06163
1.06367
1.06556
1.06735
1.06903
1.07061
1.07208
1.07345
1.07475
1.07595
1.0771
1.07816
1.07917
1.0801
1.08098
1.08179
1.08258
1.08327
1.08397
1.08456
1.08517
1.08566
1.0862
1.08661
1.08707
1.08743
1.08781
1.08811
1.08844
1.08869
1.08897
1.0892
1.08942
1.08961
1.08982
1.08997
1.09015
1.0903
1.09045
1.09059
1.09081
1.09092
1.091
1.09127
1.09143
1.09172
1.09179
1.09203
1.09245
1.09275
1.09296
1.09345
1.0938
1.09413
1.09438
1.09342
1.08988
1.08366
1.07075
1.05833
1.04149
1.0251
1.01733
1.01412
1.01202
1.01102
1.00914
1.00794
1.00589
1.00701
1.00382
1.00688
1.00115
1.00717
1.00139
1.00163
1.00174
1.00204
1.00224
1.00302
1.0024
1.0025
1.00304
1.00212
1.0016
1.0019
1.00181
1.00149
1.00622
1.00142
1.00625
1.0036
1.00702
1.00552
1.00837
1.0093
1.01113
1.01213
1.01379
1.01559
1.01607
1.01747
1.01856
1.01897
1.0215
1.02553
1.02873
1.02926
1.0316
1.03123
1.03307
1.0328
1.03427
1.0342
1.0356
1.03528
1.03682
1.0365
1.03783
1.03774
1.03897
1.03892
1.04008
1.03997
1.04108
1.04123
1.04208
1.04222
1.04299
1.04327
1.04388
1.04427
1.04474
1.04515
1.04552
1.04587
1.04608
1.04655
1.04667
1.04705
1.04732
1.04754
1.04775
1.04792
1.04798
1.04811
1.04815
1.04807
1.04797
1.04795
1.04783
1.04774
1.04742
1.04721
1.0469
1.04671
1.04633
1.04604
1.04556
1.0451
1.04448
1.04398
1.04333
1.04269
1.04182
1.04095
1.04004
1.03915
1.03813
1.03703
1.03582
1.03448
1.03308
1.03144
1.02979
1.02811
1.02641
1.02446
1.02254
1.02063
1.01859
1.01643
1.01431
1.01207
1.00901
1.00637
1.00469
1.0032
1.00095
0.998652
0.996129
0.993698
0.991274
0.988962
0.986467
0.984107
0.981788
0.979772
0.977694
0.975822
0.973997
0.972364
0.971257
0.969946
0.970048
0.969631
0.971432
0.969699
0.974439
0.972894
0.976527
0.977105
0.979982
0.981414
0.983545
0.984998
0.986872
0.989048
0.990878
0.992368
0.994202
0.995472
0.997592
0.998837
1.00056
1.00197
1.00386
1.0055
1.00732
1.0087
1.01094
1.01182
1.01446
1.01571
1.0178
1.0195
1.02208
1.02396
1.02647
1.02826
1.03116
1.0326
1.03546
1.03685
1.04036
1.043
1.04545
1.0482
1.05159
1.05479
1.05827
1.06128
1.06539
1.06851
1.07283
1.07686
1.08087
1.08397
1.08741
1.09056
1.09286
1.09396
1.09368
1.08914
1.08353
1.07376
1.06033
1.04338
1.0241
1.00458
0.989237
0.969219
0.954112
0.933888
0.922652
0.904813
0.895117
0.883496
0.876996
0.870203
0.866441
0.86223
0.860171
0.858858
0.85952
0.858581
0.859368
0.858344
0.859905
0.859409
0.861251
0.860604
0.861697
0.861339
0.861216
0.861985
0.861938
0.862079
0.863141
0.862555
0.863254
0.861119
0.860187
0.860009
0.860411
0.860638
0.861488
0.861479
0.8626
0.86298
0.863997
0.863365
0.862131
0.859645
0.858912
0.857111
0.85758
0.857016
0.857634
0.856959
0.857316
0.856522
0.856768
0.854385
0.855055
0.853336
0.854002
0.85335
0.853579
0.855214
0.860938
0.883134
0.921701
0.93966
0.940862
0.939133
0.941687
0.943163
0.945873
0.948744
0.952889
0.956379
0.960946
0.964912
0.969916
0.973643
0.978728
0.982896
0.987994