/*--------------------------------*- C++ -*----------------------------------*\
| =========                 |                                                 |
| \\      /  F ield         | OpenFOAM: The Open Source CFD Toolbox           |
|  \\    /   O peration     | Version:  v2006                                 |
|   \\  /    A nd           | Website:  www.openfoam.com                      |
|    \\/     M anipulation  |                                                 |
\*---------------------------------------------------------------------------*/
FoamFile
{
    version     2.0;
    format      ascii;
    class       volVectorField;
    location    "60";
    object      U;
}
// * * * * * * * * * * * * * * * * * * * * * * * * * * * * * * * * * * * * * //

dimensions      [0 1 -1 0 0 0 0];


internalField   nonuniform List<vector> 
93840
(
(0.862792 0.0384444 -4.38055e-17)
(0.861707 0.0311569 6.3624e-18)
(0.862466 0.0373681 1.85227e-16)
(0.858711 0.0289848 -4.18707e-17)
(0.862352 0.0335838 -2.90289e-16)
(0.858953 0.0309143 -7.45066e-16)
(0.855756 0.0320436 2.86366e-16)
(0.847995 0.0382463 1.8663e-16)
(0.853129 0.0264766 -1.27045e-16)
(0.846743 0.0354415 -6.28429e-17)
(0.846929 0.0236036 -1.45664e-16)
(0.841117 0.027143 3.90645e-16)
(0.840959 0.0194466 3.03365e-17)
(0.834949 0.0197405 2.73557e-17)
(0.830268 0.0127735 1.93005e-16)
(0.822587 0.0136566 3.86104e-17)
(0.818133 0.0107831 7.64212e-17)
(0.812788 0.0108091 -1.93132e-17)
(0.80672 0.0086779 1.16384e-17)
(0.799845 0.00942814 -7.45131e-18)
(0.780743 0.00606171 2.9541e-17)
(0.737461 0.00547882 1.81777e-17)
(0.674911 0.00650234 3.88546e-17)
(0.644259 0.00764035 2.00437e-17)
(0.621291 0.00344246 3.90282e-17)
(0.598231 0.00136674 2.1527e-17)
(0.610747 -0.00255497 3.80718e-17)
(0.60262 -0.004193 1.86061e-17)
(0.587786 -0.00442822 3.13251e-17)
(0.561497 -0.000114488 1.98691e-17)
(0.539129 -0.00500905 3.01697e-17)
(0.482038 -0.00575577 2.14313e-17)
(0.487838 -0.0262932 3.01214e-17)
(0.516552 -0.0289229 2.20595e-17)
(0.466987 -0.026833 2.9462e-17)
(0.495916 -0.028074 2.25914e-17)
(0.457297 -0.0248034 2.85631e-17)
(0.480767 -0.0262498 2.31406e-17)
(0.448819 -0.0227259 2.80394e-17)
(0.467126 -0.023484 2.33297e-17)
(0.44173 -0.0199348 2.77552e-17)
(0.457261 -0.0203782 2.33534e-17)
(0.43577 -0.0175711 2.76227e-17)
(0.448335 -0.017822 2.32684e-17)
(0.430435 -0.0155952 2.74952e-17)
(0.439511 -0.015718 2.33685e-17)
(0.4241 -0.0133203 2.71965e-17)
(0.431368 -0.0127694 2.35919e-17)
(0.41897 -0.0109623 2.67499e-17)
(0.423966 -0.0104174 2.38147e-17)
(0.413106 -0.00823538 2.63419e-17)
(0.418071 -0.00762416 2.40733e-17)
(0.407769 -0.00646319 2.59082e-17)
(0.408987 -0.00480082 2.42238e-17)
(0.401531 -0.00135352 2.5421e-17)
(0.406885 -0.000302679 2.44364e-17)
(0.400778 8.9201e-05 2.50767e-17)
(0.401981 0.000360969 2.42455e-17)
(0.393223 0.00137042 2.51454e-17)
(0.39328 0.00394003 2.35643e-17)
(0.388613 0.00549721 2.55077e-17)
(0.388577 0.00650349 2.27087e-17)
(0.382215 0.00863727 2.58261e-17)
(0.383467 0.0109028 2.20478e-17)
(0.379711 0.0121002 2.60816e-17)
(0.379965 0.0138092 2.15259e-17)
(0.377219 0.0157406 2.56732e-17)
(0.379107 0.0171597 2.17067e-17)
(0.376476 0.0184344 2.48093e-17)
(0.377428 0.0201784 2.24925e-17)
(0.375765 0.0215896 2.36009e-17)
(0.376916 0.0231205 2.31998e-17)
(0.375955 0.0248766 2.28324e-17)
(0.37809 0.0264206 2.32045e-17)
(0.377166 0.0277721 2.14418e-17)
(0.379138 0.0294769 2.11599e-17)
(0.379046 0.0308549 2.13685e-17)
(0.380806 0.0325514 2.0744e-17)
(0.381468 0.0341009 2.0063e-17)
(0.383395 0.0353669 1.96985e-17)
(0.383766 0.0367083 1.79763e-17)
(0.385781 0.0382604 1.88166e-17)
(0.386965 0.0399469 1.71806e-17)
(0.389655 0.0417744 1.8116e-17)
(0.391129 0.043042 1.5954e-17)
(0.393238 0.0445229 1.7435e-17)
(0.395789 0.0459447 1.64012e-17)
(0.398638 0.0472996 1.64417e-17)
(0.400283 0.0487313 1.65581e-17)
(0.402155 0.0504254 1.68769e-17)
(0.405803 0.0524 1.93143e-17)
(0.410787 0.0540382 1.93878e-17)
(0.4149 0.0555986 1.97443e-17)
(0.41902 0.0570918 2.10917e-17)
(0.42398 0.0586705 2.38424e-17)
(0.430118 0.0603241 2.54868e-17)
(0.435665 0.0615979 2.88193e-17)
(0.441109 0.0629757 2.71301e-17)
(0.447915 0.0644467 3.03335e-17)
(0.455027 0.0660103 3.32329e-17)
(0.461981 0.067142 3.18057e-17)
(0.469438 0.0683095 3.41908e-17)
(0.476574 0.0703417 3.85414e-17)
(0.490946 0.073862 3.41602e-17)
(0.508064 0.0732949 3.79013e-17)
(0.51304 0.0699234 3.1574e-17)
(0.514336 0.0703736 4.01127e-17)
(0.52548 0.073288 3.38929e-17)
(0.53821 0.0738184 4.54885e-17)
(0.551511 0.0739989 3.84869e-17)
(0.56437 0.0734445 4.68144e-17)
(0.578027 0.0728149 3.84717e-17)
(0.590466 0.071746 4.65062e-17)
(0.606941 0.071301 3.9524e-17)
(0.621394 0.0688431 4.76478e-17)
(0.637133 0.0663262 4.27631e-17)
(0.650309 0.0628855 4.44256e-17)
(0.667106 0.0602189 4.15907e-17)
(0.68028 0.0547961 4.37004e-17)
(0.695294 0.0503061 4.18928e-17)
(0.707105 0.0437657 4.45494e-17)
(0.722053 0.039096 4.56763e-17)
(0.730371 0.0300586 4.80404e-17)
(0.740648 0.0243931 4.84698e-17)
(0.744356 0.0136487 5.10478e-17)
(0.74429 0.00845944 5.03384e-17)
(0.75508 -0.000246036 5.28845e-17)
(0.742365 -0.0066105 5.24246e-17)
(0.750787 -0.0108874 5.51752e-17)
(0.74541 -0.0199585 5.55398e-17)
(0.743048 -0.0235751 5.86336e-17)
(0.740553 -0.0304345 5.93046e-17)
(0.734862 -0.0342916 6.20602e-17)
(0.734485 -0.0388339 6.18105e-17)
(0.730214 -0.0430296 6.42418e-17)
(0.728415 -0.0482618 6.24864e-17)
(0.721563 -0.0507269 6.4439e-17)
(0.720777 -0.0548321 6.30663e-17)
(0.717174 -0.0571947 6.37047e-17)
(0.715888 -0.060701 6.22478e-17)
(0.714104 -0.0635523 6.29395e-17)
(0.712309 -0.0685399 6.08624e-17)
(0.708786 -0.0709667 6.12516e-17)
(0.707335 -0.0748684 6.13973e-17)
(0.704755 -0.076911 6.03132e-17)
(0.703457 -0.0815584 5.88646e-17)
(0.700874 -0.0841404 5.78293e-17)
(0.700548 -0.0897261 5.52201e-17)
(0.696882 -0.0929045 5.3556e-17)
(0.694856 -0.0976895 5.14766e-17)
(0.690569 -0.100439 4.78065e-17)
(0.68877 -0.105387 4.57954e-17)
(0.684595 -0.108543 4.19536e-17)
(0.681047 -0.113391 3.94906e-17)
(0.675826 -0.116743 3.60983e-17)
(0.67195 -0.122417 3.33779e-17)
(0.666043 -0.125948 3.05659e-17)
(0.660576 -0.131562 2.86111e-17)
(0.653354 -0.135093 2.63029e-17)
(0.646541 -0.139608 2.61823e-17)
(0.639984 -0.142267 2.48517e-17)
(0.634753 -0.147929 2.52476e-17)
(0.627067 -0.153497 2.44688e-17)
(0.618323 -0.159525 2.53567e-17)
(0.608843 -0.165418 2.55421e-17)
(0.598031 -0.171581 2.71504e-17)
(0.583759 -0.175892 2.82379e-17)
(0.570348 -0.181194 3.02854e-17)
(0.559217 -0.187008 3.07328e-17)
(0.544222 -0.194011 3.48724e-17)
(0.522081 -0.198915 3.58781e-17)
(0.498293 -0.204215 3.82067e-17)
(0.476428 -0.207077 3.96255e-17)
(0.454472 -0.211207 4.26994e-17)
(0.421464 -0.212758 4.7072e-17)
(0.382026 -0.212093 4.80071e-17)
(0.339294 -0.20804 5.14944e-17)
(0.284562 -0.192542 5.27294e-17)
(0.220689 -0.165772 5.57841e-17)
(0.154337 -0.126846 5.37173e-17)
(0.0978721 -0.0734505 5.81625e-17)
(-0.0146702 0.0856375 1.44177e-17)
(-0.0202182 0.185212 3.17016e-17)
(-0.0141415 0.441862 5.32392e-17)
(0.109921 0.580277 5.94641e-17)
(0.230979 0.761738 6.1162e-17)
(0.463466 0.81178 6.28877e-17)
(0.630461 0.819695 6.2667e-17)
(0.755047 0.739271 6.18319e-17)
(0.796115 0.694328 6.17256e-17)
(0.906446 0.690713 6.05885e-17)
(0.99713 0.656999 5.9933e-17)
(1.06474 0.613637 5.93431e-17)
(1.09324 0.565067 5.94766e-17)
(1.14038 0.530486 5.85427e-17)
(1.15583 0.492735 5.85823e-17)
(1.1704 0.458967 5.79584e-17)
(1.18195 0.434138 5.84151e-17)
(1.17952 0.403685 5.79575e-17)
(1.18274 0.382727 5.72767e-17)
(1.1755 0.359429 5.7496e-17)
(1.16917 0.34006 5.73444e-17)
(1.16373 0.321872 5.67676e-17)
(1.15733 0.305885 5.56573e-17)
(1.15228 0.290849 5.53967e-17)
(1.14578 0.278035 5.38924e-17)
(1.13774 0.265626 5.38161e-17)
(1.12915 0.253581 5.17349e-17)
(1.12097 0.242164 5.06841e-17)
(1.11234 0.23202 4.82833e-17)
(1.10636 0.221291 4.6824e-17)
(1.09989 0.211183 4.3885e-17)
(1.09502 0.201862 4.24191e-17)
(1.08827 0.192483 3.97899e-17)
(1.08162 0.183534 3.8097e-17)
(1.07335 0.175233 3.53921e-17)
(1.0665 0.167888 3.40452e-17)
(1.06012 0.159993 3.18303e-17)
(1.05397 0.152469 3.11893e-17)
(1.04888 0.145264 2.91765e-17)
(1.05129 0.136833 2.92551e-17)
(1.04599 0.128873 2.87459e-17)
(1.03747 0.122881 3.03303e-17)
(1.02922 0.116766 3.08647e-17)
(1.02157 0.111643 3.31121e-17)
(1.0135 0.106778 3.50793e-17)
(1.0065 0.102046 3.71579e-17)
(0.998213 0.0971808 3.90335e-17)
(0.98942 0.0925595 4.20172e-17)
(0.981774 0.0882857 4.37655e-17)
(0.980185 0.0838681 4.52151e-17)
(0.983563 0.0774515 4.59856e-17)
(0.984405 0.0718285 4.78767e-17)
(0.983343 0.0659469 4.91162e-17)
(0.980292 0.0597361 5.04664e-17)
(0.973034 0.0550412 5.11086e-17)
(0.967167 0.0514614 5.26912e-17)
(0.961841 0.0471904 5.46749e-17)
(0.956373 0.04297 5.69041e-17)
(0.952562 0.0385993 6.08618e-17)
(0.947951 0.0353173 6.42171e-17)
(0.94711 0.0301816 6.83681e-17)
(0.945099 0.0263123 7.19447e-17)
(0.944091 0.0208045 7.6831e-17)
(0.940513 0.0168949 8.02464e-17)
(0.938326 0.0119895 8.39984e-17)
(0.932223 0.00933034 8.6355e-17)
(0.930153 0.00161581 8.83672e-17)
(0.90549 0.00072239 8.89892e-17)
(0.878751 -0.00142408 8.90684e-17)
(0.788721 -0.0065699 8.826e-17)
(0.598587 -0.00780943 8.57235e-17)
(0.495318 -0.0105172 8.32009e-17)
(0.504336 -0.014486 8.13989e-17)
(0.528801 -0.0184591 8.0258e-17)
(0.53968 -0.0210414 7.97864e-17)
(0.550945 -0.0247611 7.95074e-17)
(0.556274 -0.0284606 7.88489e-17)
(0.556815 -0.0321605 7.85053e-17)
(0.552386 -0.0348324 7.59705e-17)
(0.545228 -0.0375717 7.48321e-17)
(0.53657 -0.0396586 7.21897e-17)
(0.528015 -0.0418875 7.0915e-17)
(0.517806 -0.0435693 6.78428e-17)
(0.507059 -0.0452763 6.65309e-17)
(0.495511 -0.0461705 6.24124e-17)
(0.485794 -0.0476427 6.18001e-17)
(0.472846 -0.0501063 5.82763e-17)
(0.453171 -0.0510115 5.85789e-17)
(0.435224 -0.0477221 5.63649e-17)
(0.433127 -0.0466516 5.61297e-17)
(0.427924 -0.0494576 5.46288e-17)
(0.412164 -0.0517144 5.53596e-17)
(0.392504 -0.0491702 5.33419e-17)
(0.385122 -0.0468629 5.29487e-17)
(0.379599 -0.0473391 5.17272e-17)
(0.369827 -0.0487751 5.21445e-17)
(0.355293 -0.0484047 4.95025e-17)
(0.343486 -0.0471963 4.88162e-17)
(0.332525 -0.0463076 4.77906e-17)
(0.322016 -0.0457034 4.72826e-17)
(0.311007 -0.0449521 4.70197e-17)
(0.299958 -0.0441028 4.53719e-17)
(0.289167 -0.0433007 4.2769e-17)
(0.278291 -0.0422795 4.20018e-17)
(0.267488 -0.0410471 3.85065e-17)
(0.257557 -0.0399188 3.74165e-17)
(0.24797 -0.0387974 3.57407e-17)
(0.238253 -0.0377184 3.7844e-17)
(0.228593 -0.0365955 3.67346e-17)
(0.219201 -0.0354251 3.95701e-17)
(0.210005 -0.0342975 3.96415e-17)
(0.200823 -0.0331257 3.96423e-17)
(0.191869 -0.0319194 4.38304e-17)
(0.183176 -0.0307282 4.51369e-17)
(0.174581 -0.0295265 4.72969e-17)
(0.166359 -0.0283547 4.83417e-17)
(0.157988 -0.0271552 5.03418e-17)
(0.150203 -0.0259834 5.01931e-17)
(0.14209 -0.024725 5.28454e-17)
(0.135055 -0.0235985 5.19454e-17)
(0.127274 -0.022402 5.24379e-17)
(0.12068 -0.0214481 5.16277e-17)
(0.112667 -0.0202587 5.03002e-17)
(0.10628 -0.0192506 5.1114e-17)
(0.0984285 -0.0178608 4.83749e-17)
(0.0931822 -0.0169168 4.83113e-17)
(0.0858426 -0.0156014 4.95451e-17)
(0.081396 -0.0148447 4.7546e-17)
(0.074118 -0.0135673 4.70717e-17)
(0.0702402 -0.0129083 4.60373e-17)
(0.0629904 -0.0115914 4.71987e-17)
(0.0598984 -0.011018 4.46741e-17)
(0.0528316 -0.0096695 4.75888e-17)
(0.0507059 -0.00926799 4.50003e-17)
(0.043814 -0.00798553 4.84022e-17)
(0.0421991 -0.00776648 4.86532e-17)
(0.035146 -0.00641808 4.96624e-17)
(0.034002 -0.0062305 4.7337e-17)
(0.0268218 -0.00474652 5.1073e-17)
(0.0266052 -0.00469945 4.94709e-17)
(0.0197686 -0.00346305 4.85149e-17)
(0.0201398 -0.00364683 5.2873e-17)
(0.0134979 -0.00247759 5.15007e-17)
(0.0148565 -0.00292383 5.47642e-17)
(0.00828653 -0.00165086 5.51354e-17)
(0.0115452 -0.00260084 5.41917e-17)
(0.00514705 -0.00103164 5.56545e-17)
(0.0110167 -0.00221116 5.56455e-17)
(0.00471024 -0.00186097 5.52955e-17)
(0.0135436 -0.0026779 5.72915e-17)
(0.00709844 -0.00507077 5.57059e-17)
(0.0227078 -0.00830758 5.65432e-17)
(0.0183281 -0.010666 5.79366e-17)
(0.0422549 -0.0370892 5.52478e-17)
(0.0550043 -0.0715761 6.09373e-17)
(0.134702 0.0123168 4.01921e-17)
(0.205527 0.00316144 5.24853e-17)
(0.303897 0.0190542 2.814e-17)
(0.397066 0.0143535 4.25981e-17)
(0.483379 0.0175748 1.91005e-17)
(0.565199 0.0136835 3.75713e-17)
(0.599604 0.00674491 1.91476e-17)
(0.620682 0.00558207 3.92846e-17)
(0.637895 0.00879402 2.05641e-17)
(0.660689 0.00760533 3.78045e-17)
(0.728329 0.00579486 2.18976e-17)
(0.780068 0.00660612 1.36521e-17)
(0.800597 0.00846285 1.24739e-17)
(0.806706 0.00830711 2.31637e-18)
(0.812839 0.0110863 -1.91174e-17)
(0.818231 0.010834 8.15135e-17)
(0.822764 0.0134979 4.6451e-17)
(0.828715 0.0131586 2.31237e-16)
(0.835455 0.0191712 -5.4135e-17)
(0.841791 0.0191957 5.08372e-16)
(0.841236 0.0272371 -3.84862e-16)
(0.84716 0.0235595 1.92916e-16)
(0.847435 0.0351397 -3.27902e-16)
(0.853276 0.0265871 2.92771e-16)
(0.848332 0.0382603 -1.43235e-16)
(0.856317 0.0316161 -2.40716e-17)
(0.859835 0.0307946 3.1104e-16)
(0.862511 0.0338647 -4.39269e-16)
(0.858884 0.0294337 1.56447e-17)
(0.862594 0.0375183 5.70575e-17)
(0.861746 0.0308156 -1.04698e-16)
(0.862812 0.0383902 -1.54445e-16)
(0.862802 0.0384347 -1.60468e-16)
(0.861751 0.0307084 -1.29945e-16)
(0.862572 0.0375213 4.54995e-17)
(0.858838 0.029377 3.08293e-17)
(0.862485 0.0338387 -4.24804e-16)
(0.859596 0.0308727 2.41639e-16)
(0.856347 0.0314791 -1.71418e-16)
(0.848371 0.0382575 -1.10039e-16)
(0.852847 0.0266223 1.87612e-16)
(0.847659 0.0350852 -3.01042e-16)
(0.847084 0.0235381 3.13103e-16)
(0.841747 0.0271465 -3.9205e-16)
(0.841306 0.01932 3.46318e-16)
(0.835406 0.0192579 -6.8954e-17)
(0.828999 0.0132611 3.23175e-16)
(0.822724 0.0137223 4.87269e-18)
(0.818017 0.0109831 8.91694e-17)
(0.812835 0.0112054 -1.54868e-17)
(0.806815 0.0087373 1.03544e-18)
(0.802785 0.00859116 7.31797e-18)
(0.79029 0.00718143 1.2561e-17)
(0.753903 0.00646361 1.61456e-17)
(0.694319 0.008008 3.83815e-17)
(0.661145 0.00974562 1.94741e-17)
(0.642573 0.00757794 3.83332e-17)
(0.605141 0.00756553 2.08038e-17)
(0.596345 0.00483084 3.92373e-17)
(0.580238 0.00495055 2.67017e-17)
(0.571318 -0.00407651 3.3545e-17)
(0.567852 -0.00787792 2.53894e-17)
(0.562686 -0.0153256 3.3216e-17)
(0.560165 -0.0184241 2.41282e-17)
(0.554863 -0.00610741 3.28031e-17)
(0.544218 -0.0247965 2.43258e-17)
(0.538505 -0.0164931 3.26112e-17)
(0.531589 -0.0242943 2.42593e-17)
(0.524829 -0.0191421 3.20051e-17)
(0.520959 -0.0230332 2.49661e-17)
(0.513092 -0.01943 3.12194e-17)
(0.511162 -0.0209217 2.52216e-17)
(0.503775 -0.0179786 3.08347e-17)
(0.503072 -0.0186285 2.53772e-17)
(0.495365 -0.0162921 3.0488e-17)
(0.495538 -0.0164756 2.53928e-17)
(0.48798 -0.0145912 3.0327e-17)
(0.488223 -0.0145635 2.52728e-17)
(0.480663 -0.0125587 3.01042e-17)
(0.481088 -0.0118705 2.53155e-17)
(0.474066 -0.0102881 2.96811e-17)
(0.47439 -0.00953996 2.55217e-17)
(0.467427 -0.00750541 2.92022e-17)
(0.468381 -0.00675111 2.56963e-17)
(0.461203 -0.00538396 2.86653e-17)
(0.460932 -0.00397386 2.58856e-17)
(0.455332 -0.000646506 2.8102e-17)
(0.457637 0.000372734 2.61369e-17)
(0.452513 0.00145118 2.74959e-17)
(0.452526 0.00183997 2.62319e-17)
(0.445671 0.00330404 2.71369e-17)
(0.444997 0.00548336 2.59702e-17)
(0.440679 0.00747258 2.71441e-17)
(0.440053 0.00845984 2.5329e-17)
(0.434885 0.01075 2.73533e-17)
(0.435344 0.0127767 2.45251e-17)
(0.432053 0.0145153 2.75092e-17)
(0.432186 0.0160819 2.38311e-17)
(0.429943 0.0181404 2.73945e-17)
(0.431445 0.0196903 2.33267e-17)
(0.429381 0.0212673 2.67029e-17)
(0.430268 0.0230833 2.33454e-17)
(0.428965 0.0246015 2.52653e-17)
(0.430135 0.0264416 2.30849e-17)
(0.429543 0.028311 2.39216e-17)
(0.431629 0.0300798 2.27168e-17)
(0.431126 0.031611 2.27399e-17)
(0.433271 0.0334656 2.23582e-17)
(0.433468 0.0350504 2.14582e-17)
(0.435362 0.0369986 2.107e-17)
(0.436208 0.0387663 2.08394e-17)
(0.438334 0.0402774 2.0473e-17)
(0.4392 0.0417846 1.96924e-17)
(0.441649 0.0435235 2.00983e-17)
(0.443176 0.0454396 1.91079e-17)
(0.445994 0.0474994 1.91848e-17)
(0.447752 0.0490217 1.85429e-17)
(0.450434 0.050614 1.94223e-17)
(0.453517 0.0522249 1.89217e-17)
(0.456726 0.053903 2.03344e-17)
(0.458755 0.0556372 2.01917e-17)
(0.461299 0.0574404 2.14852e-17)
(0.465772 0.0595313 2.22442e-17)
(0.471296 0.0614122 2.2108e-17)
(0.475876 0.0632207 2.491e-17)
(0.480743 0.0648737 2.6354e-17)
(0.486637 0.0665845 2.8872e-17)
(0.493501 0.0684823 3.01879e-17)
(0.499674 0.0700419 3.16324e-17)
(0.506181 0.0715452 3.37078e-17)
(0.514015 0.0731721 3.50667e-17)
(0.521957 0.0749511 3.42621e-17)
(0.529973 0.0761473 3.82125e-17)
(0.538773 0.0774978 3.87065e-17)
(0.547329 0.0795011 3.69121e-17)
(0.562643 0.0830899 3.83858e-17)
(0.579852 0.0827151 4.0325e-17)
(0.585794 0.0795052 4.07026e-17)
(0.589192 0.0798956 4.50564e-17)
(0.601829 0.0827648 4.29075e-17)
(0.615601 0.0831797 4.74343e-17)
(0.630132 0.0833318 4.40669e-17)
(0.64423 0.0826218 5.07288e-17)
(0.659131 0.0818167 4.55023e-17)
(0.672948 0.0804223 5.17735e-17)
(0.690532 0.0797987 4.66075e-17)
(0.705923 0.076825 5.18045e-17)
(0.722663 0.0739958 4.67384e-17)
(0.736782 0.070011 5.02803e-17)
(0.754254 0.0667479 4.71287e-17)
(0.767875 0.0607852 5.00551e-17)
(0.783438 0.0554667 4.8657e-17)
(0.795365 0.0483371 5.28899e-17)
(0.810274 0.0425297 5.1124e-17)
(0.81814 0.0332283 5.55035e-17)
(0.82814 0.0263098 5.47128e-17)
(0.831138 0.0150512 5.79601e-17)
(0.831273 0.00909014 5.73432e-17)
(0.840839 -0.000320844 6.01982e-17)
(0.828113 -0.0082307 5.99377e-17)
(0.836281 -0.0135615 6.32427e-17)
(0.8294 -0.0220852 6.38004e-17)
(0.827493 -0.0275933 6.71763e-17)
(0.823639 -0.0339734 6.75511e-17)
(0.818326 -0.0376661 7.02405e-17)
(0.816889 -0.0431403 7.00032e-17)
(0.812205 -0.0474938 7.18872e-17)
(0.809752 -0.0526407 7.12607e-17)
(0.802724 -0.0566378 7.22174e-17)
(0.80134 -0.060365 7.06969e-17)
(0.79724 -0.0643211 7.15984e-17)
(0.795385 -0.0676139 7.0013e-17)
(0.792702 -0.0722178 7.07443e-17)
(0.790329 -0.0755739 6.95051e-17)
(0.786168 -0.0803062 6.95751e-17)
(0.78442 -0.0825327 6.77448e-17)
(0.780843 -0.0872723 6.72107e-17)
(0.778969 -0.0896637 6.44082e-17)
(0.775302 -0.0943805 6.31168e-17)
(0.774431 -0.0976409 5.969e-17)
(0.769626 -0.10289 5.85599e-17)
(0.766975 -0.106285 5.42375e-17)
(0.761502 -0.110846 5.2492e-17)
(0.758903 -0.114528 4.77945e-17)
(0.753147 -0.119742 4.53744e-17)
(0.748701 -0.123923 4.0543e-17)
(0.741965 -0.128804 3.79714e-17)
(0.737197 -0.132456 3.50253e-17)
(0.729446 -0.137359 3.28651e-17)
(0.723019 -0.141308 3.06988e-17)
(0.714118 -0.146508 3.07257e-17)
(0.70634 -0.149512 2.93943e-17)
(0.697187 -0.153822 3.00968e-17)
(0.689382 -0.158473 3.05958e-17)
(0.678668 -0.163791 3.26171e-17)
(0.667146 -0.168285 3.37848e-17)
(0.654468 -0.173281 3.69046e-17)
(0.640174 -0.177714 3.92015e-17)
(0.621425 -0.181124 4.31435e-17)
(0.604658 -0.184741 4.40449e-17)
(0.588494 -0.189482 4.9655e-17)
(0.568114 -0.192697 5.03865e-17)
(0.541319 -0.194824 5.66088e-17)
(0.513664 -0.195684 5.66607e-17)
(0.484598 -0.19609 6.1705e-17)
(0.455868 -0.195073 6.16319e-17)
(0.418716 -0.193561 6.63675e-17)
(0.376524 -0.18734 6.61087e-17)
(0.331623 -0.18146 6.77366e-17)
(0.282336 -0.164428 6.71947e-17)
(0.22819 -0.134709 6.90731e-17)
(0.167217 -0.0854268 6.42603e-17)
(0.11857 -0.0116033 6.28071e-17)
(0.0607614 0.0922932 2.61334e-17)
(0.0511125 0.229732 7.50308e-17)
(0.0492462 0.362459 9.12215e-17)
(0.142746 0.465715 9.46399e-17)
(0.27496 0.624993 9.58019e-17)
(0.464328 0.688063 9.59954e-17)
(0.629329 0.720344 9.39239e-17)
(0.761836 0.694317 9.26768e-17)
(0.821271 0.675151 9.27374e-17)
(0.920303 0.673539 9.37408e-17)
(1.0142 0.650547 9.26473e-17)
(1.09656 0.620609 9.21244e-17)
(1.138 0.577649 9.15661e-17)
(1.19452 0.548514 9.09357e-17)
(1.22202 0.516288 8.94539e-17)
(1.24472 0.489468 8.84026e-17)
(1.26673 0.459847 8.6472e-17)
(1.27031 0.435968 8.57383e-17)
(1.28169 0.410192 8.32589e-17)
(1.27904 0.391412 8.22759e-17)
(1.2765 0.373569 8.04356e-17)
(1.27439 0.35613 7.85353e-17)
(1.27038 0.339059 7.52223e-17)
(1.26693 0.323682 7.29703e-17)
(1.26222 0.310151 7.00835e-17)
(1.25524 0.296845 6.87207e-17)
(1.24703 0.283167 6.57808e-17)
(1.23936 0.271212 6.29565e-17)
(1.23088 0.259094 5.98214e-17)
(1.22447 0.247873 5.7449e-17)
(1.2178 0.236766 5.41801e-17)
(1.21281 0.226484 5.14032e-17)
(1.2061 0.215586 4.81422e-17)
(1.19959 0.205894 4.54963e-17)
(1.1916 0.196803 4.23373e-17)
(1.18479 0.188593 3.94937e-17)
(1.17816 0.180113 3.66077e-17)
(1.17196 0.172006 3.52848e-17)
(1.1663 0.163204 3.28233e-17)
(1.16793 0.155071 3.18823e-17)
(1.16347 0.146663 3.09406e-17)
(1.15584 0.139168 3.22931e-17)
(1.1478 0.132486 3.27799e-17)
(1.1405 0.126274 3.47769e-17)
(1.13245 0.12094 3.53184e-17)
(1.12559 0.11557 3.84308e-17)
(1.11728 0.110315 3.96018e-17)
(1.10862 0.104866 4.25846e-17)
(1.10057 0.100107 4.44006e-17)
(1.09795 0.0951909 4.72684e-17)
(1.10027 0.0877811 4.84579e-17)
(1.10107 0.0815408 5.02657e-17)
(1.09991 0.0743029 5.17768e-17)
(1.09733 0.0687679 5.24973e-17)
(1.09052 0.0638135 5.465e-17)
(1.08489 0.0588531 5.56796e-17)
(1.07943 0.05388 5.81151e-17)
(1.07398 0.0495689 5.99697e-17)
(1.06988 0.0446997 6.37831e-17)
(1.06523 0.0398129 6.65173e-17)
(1.06361 0.0347202 7.18984e-17)
(1.06171 0.0306278 7.57765e-17)
(1.06008 0.0247732 8.11199e-17)
(1.05704 0.0203156 8.48608e-17)
(1.05436 0.0148534 8.96675e-17)
(1.04858 0.0106738 9.26258e-17)
(1.04629 0.00337421 9.57476e-17)
(1.02369 0.00193164 9.66953e-17)
(0.998595 0.000294556 9.78926e-17)
(0.911749 -0.000991314 9.68949e-17)
(0.72984 0.00308288 9.48184e-17)
(0.619917 -0.00877208 9.22498e-17)
(0.615542 -0.0189637 9.00575e-17)
(0.631679 -0.0237916 8.84591e-17)
(0.637408 -0.0264296 8.73785e-17)
(0.645032 -0.0302605 8.63766e-17)
(0.647865 -0.0339007 8.60463e-17)
(0.646672 -0.0376397 8.45329e-17)
(0.640742 -0.0402276 8.42286e-17)
(0.632259 -0.0431745 8.24334e-17)
(0.622269 -0.0454634 8.06959e-17)
(0.612432 -0.0479008 7.7565e-17)
(0.600897 -0.0498143 7.45251e-17)
(0.588983 -0.0516811 7.16066e-17)
(0.576084 -0.0528633 6.95407e-17)
(0.564958 -0.0545012 6.608e-17)
(0.550825 -0.0568795 6.44257e-17)
(0.530657 -0.0578845 6.24469e-17)
(0.511302 -0.0548633 6.03829e-17)
(0.506663 -0.0541781 6.00945e-17)
(0.499846 -0.0566988 5.93458e-17)
(0.483725 -0.0585184 5.93575e-17)
(0.46333 -0.0562265 5.87156e-17)
(0.453991 -0.0542564 5.98391e-17)
(0.446677 -0.0546114 5.70863e-17)
(0.435827 -0.0559124 5.63718e-17)
(0.420586 -0.0553971 5.61643e-17)
(0.407665 -0.0542916 5.52137e-17)
(0.395373 -0.0535114 5.51498e-17)
(0.383704 -0.0527778 5.22657e-17)
(0.371653 -0.0519684 5.07178e-17)
(0.35952 -0.0510361 5.02238e-17)
(0.347621 -0.0500658 4.84053e-17)
(0.335816 -0.0490305 4.58859e-17)
(0.324031 -0.0476561 4.55026e-17)
(0.312994 -0.0464438 4.32831e-17)
(0.302427 -0.0453196 4.17289e-17)
(0.291842 -0.0440952 4.0355e-17)
(0.281269 -0.0428704 4.08435e-17)
(0.270989 -0.0416628 4.05911e-17)
(0.261003 -0.0404022 4.1344e-17)
(0.25107 -0.0390907 4.2472e-17)
(0.241378 -0.0378221 4.45402e-17)
(0.23195 -0.0365281 4.58057e-17)
(0.222682 -0.0352669 4.74605e-17)
(0.213794 -0.0339948 4.85785e-17)
(0.204852 -0.0327343 4.93214e-17)
(0.196429 -0.0314544 5.12483e-17)
(0.18782 -0.0301481 5.16616e-17)
(0.180131 -0.0288931 5.36877e-17)
(0.171891 -0.0276598 5.37293e-17)
(0.164635 -0.0265241 5.436e-17)
(0.156276 -0.0253171 5.39921e-17)
(0.14927 -0.0241596 5.36564e-17)
(0.14112 -0.0228442 5.41375e-17)
(0.135143 -0.0217584 5.31195e-17)
(0.1276 -0.0205332 5.24088e-17)
(0.122421 -0.0195688 5.10191e-17)
(0.115108 -0.0183944 5.16558e-17)
(0.110511 -0.0175029 5.0087e-17)
(0.103375 -0.0163362 5.08669e-17)
(0.0994981 -0.0155397 4.93521e-17)
(0.0926376 -0.0143967 4.97422e-17)
(0.0896185 -0.0137301 4.89442e-17)
(0.0830215 -0.0126709 4.90278e-17)
(0.0805723 -0.012148 4.84152e-17)
(0.0739821 -0.0110695 4.98453e-17)
(0.0721113 -0.0105855 4.89726e-17)
(0.0654094 -0.00946835 4.96698e-17)
(0.0643399 -0.00908741 4.99367e-17)
(0.0578343 -0.00822936 4.98445e-17)
(0.0574806 -0.00810924 5.08585e-17)
(0.0509814 -0.00732298 5.06878e-17)
(0.051748 -0.00756096 5.17779e-17)
(0.0448611 -0.00683177 5.26533e-17)
(0.0471591 -0.00761386 5.32815e-17)
(0.0406545 -0.00719177 5.32187e-17)
(0.0437523 -0.00781514 5.41174e-17)
(0.0380069 -0.00923145 5.44813e-17)
(0.0419077 -0.00943593 5.52453e-17)
(0.0373953 -0.0128743 5.52419e-17)
(0.042162 -0.0147326 5.53164e-17)
(0.0359835 -0.0224093 5.55056e-17)
(0.0461407 -0.0338075 5.54871e-17)
(0.0206927 -0.0480688 5.41094e-17)
(0.0309123 -0.0273024 5.16215e-17)
(0.0621227 -0.0260311 5.70809e-17)
(0.114137 -0.0120576 3.80998e-17)
(0.197283 0.00118359 5.61362e-17)
(0.285207 0.00886469 2.60191e-17)
(0.402387 0.0125181 4.5522e-17)
(0.501912 0.0114298 2.05221e-17)
(0.575316 0.0082489 3.97402e-17)
(0.617953 0.0091544 2.04922e-17)
(0.639228 0.0067995 4.11081e-17)
(0.705387 0.0053961 2.28089e-17)
(0.767075 0.00587478 3.46917e-17)
(0.797796 0.00931928 -7.32441e-18)
(0.806543 0.00830338 1.19999e-17)
(0.81285 0.0108091 -1.27815e-17)
(0.818344 0.0105981 7.00221e-17)
(0.82276 0.013524 5.04122e-17)
(0.829787 0.0127401 2.00808e-16)
(0.835378 0.0196221 1.14759e-16)
(0.840277 0.0195547 -3.24494e-17)
(0.841973 0.0270085 1.85229e-16)
(0.846947 0.0235653 -1.86776e-16)
(0.846684 0.0354709 -9.94232e-17)
(0.852882 0.0265283 -1.70942e-16)
(0.848123 0.0382264 1.65121e-16)
(0.855896 0.031993 1.05114e-16)
(0.85885 0.0308812 -5.58901e-16)
(0.862353 0.033539 -4.43497e-16)
(0.858738 0.0291558 -5.05279e-17)
(0.862487 0.037352 1.73976e-16)
(0.861703 0.0310731 3.79569e-17)
(0.862797 0.0383977 -4.59466e-17)
(0.862787 0.0385052 -5.24508e-17)
(0.86167 0.0310365 4.18372e-17)
(0.862449 0.0374088 1.81267e-16)
(0.858698 0.029049 3.16955e-17)
(0.862401 0.0336543 -2.40139e-16)
(0.858734 0.0310215 -6.75603e-16)
(0.855851 0.0320689 1.78627e-16)
(0.847831 0.0382682 1.28553e-16)
(0.852945 0.0265192 -1.7177e-16)
(0.847032 0.0353642 -8.53989e-17)
(0.847446 0.0235469 -3.20929e-17)
(0.841458 0.0270566 2.6725e-16)
(0.840891 0.0195115 -1.90339e-17)
(0.835947 0.0195944 1.45226e-16)
(0.829598 0.0131341 1.86985e-16)
(0.822712 0.0137989 4.25464e-17)
(0.81785 0.0110324 9.2797e-17)
(0.812862 0.0111924 -2.68679e-17)
(0.806886 0.00898189 1.11872e-17)
(0.801518 0.00944869 -1.26869e-17)
(0.790842 0.0064298 3.08962e-17)
(0.768679 0.00601849 6.75393e-18)
(0.717446 0.00699718 3.85361e-17)
(0.677128 0.00759041 1.88755e-17)
(0.665916 0.00383065 3.83921e-17)
(0.640628 0.00421222 2.04082e-17)
(0.623412 0.00404608 3.84078e-17)
(0.623718 0.00226494 1.9714e-17)
(0.605471 -0.000946416 4.05179e-17)
(0.60065 -0.001836 1.93454e-17)
(0.590161 -0.0073823 3.96684e-17)
(0.58125 -0.00918595 1.96827e-17)
(0.5782 -0.0172944 3.76949e-17)
(0.579026 -0.017211 2.22334e-17)
(0.566023 -0.020258 3.62222e-17)
(0.570183 -0.0206034 2.26707e-17)
(0.555501 -0.0203158 3.52891e-17)
(0.560072 -0.0213759 2.35991e-17)
(0.546252 -0.019435 3.39619e-17)
(0.550233 -0.0202823 2.43614e-17)
(0.538218 -0.0178064 3.32873e-17)
(0.541735 -0.0185088 2.48921e-17)
(0.530984 -0.016042 3.24103e-17)
(0.53375 -0.0165103 2.52945e-17)
(0.524343 -0.0141586 3.18802e-17)
(0.526062 -0.0143869 2.54435e-17)
(0.517401 -0.012072 3.15763e-17)
(0.518591 -0.011773 2.53172e-17)
(0.510928 -0.00978212 3.12676e-17)
(0.511522 -0.00916908 2.5456e-17)
(0.504454 -0.00700571 3.06348e-17)
(0.505012 -0.00625355 2.57632e-17)
(0.498396 -0.00448657 2.98944e-17)
(0.497592 -0.0030409 2.60135e-17)
(0.492665 -0.000361039 2.92906e-17)
(0.493874 0.000836489 2.62341e-17)
(0.489603 0.00210179 2.85682e-17)
(0.48899 0.00297135 2.6467e-17)
(0.483307 0.00458431 2.7946e-17)
(0.481982 0.00664878 2.65054e-17)
(0.478468 0.0086495 2.74438e-17)
(0.477353 0.0100012 2.62941e-17)
(0.47321 0.0121345 2.72031e-17)
(0.473183 0.014149 2.56631e-17)
(0.470685 0.0161109 2.71319e-17)
(0.470527 0.0178721 2.48126e-17)
(0.469015 0.0198427 2.70634e-17)
(0.470257 0.021477 2.39568e-17)
(0.468847 0.0233423 2.64531e-17)
(0.469498 0.0251308 2.33316e-17)
(0.468703 0.0268629 2.55432e-17)
(0.469782 0.028758 2.27966e-17)
(0.46961 0.0308298 2.42619e-17)
(0.471623 0.0327352 2.23319e-17)
(0.471616 0.0344626 2.3269e-17)
(0.473713 0.0363985 2.19828e-17)
(0.474211 0.0382323 2.20191e-17)
(0.476098 0.0402677 2.15526e-17)
(0.477282 0.0422477 2.09479e-17)
(0.479689 0.0438633 2.10732e-17)
(0.481092 0.0455751 2.04173e-17)
(0.483735 0.0474324 2.10577e-17)
(0.485485 0.0495657 2.05122e-17)
(0.488463 0.0518234 2.09188e-17)
(0.490831 0.0535125 2.0685e-17)
(0.494096 0.0552408 2.17546e-17)
(0.497594 0.0570191 2.2334e-17)
(0.50104 0.058903 2.35176e-17)
(0.503687 0.0608786 2.34487e-17)
(0.507085 0.062812 2.52112e-17)
(0.512209 0.0650316 2.55359e-17)
(0.518074 0.0671146 2.87358e-17)
(0.523257 0.069204 2.94386e-17)
(0.529043 0.0710063 3.1356e-17)
(0.535744 0.0728577 3.2062e-17)
(0.543115 0.0749399 3.48727e-17)
(0.550107 0.0766407 3.49243e-17)
(0.557706 0.0783008 3.84729e-17)
(0.56629 0.0800594 3.7764e-17)
(0.574981 0.0820428 3.86645e-17)
(0.584119 0.0834374 4.02097e-17)
(0.59392 0.0849199 4.08496e-17)
(0.603399 0.0869969 4.39802e-17)
(0.619375 0.0904273 4.46248e-17)
(0.636849 0.0900446 4.6154e-17)
(0.644032 0.087126 4.73087e-17)
(0.649195 0.087537 4.85547e-17)
(0.662635 0.0903174 4.94391e-17)
(0.677147 0.0907026 5.00154e-17)
(0.6925 0.0907625 4.95556e-17)
(0.707357 0.089899 5.35567e-17)
(0.722929 0.0889522 5.05714e-17)
(0.73752 0.087298 5.39138e-17)
(0.755429 0.0863416 5.0974e-17)
(0.771182 0.0830992 5.26176e-17)
(0.788159 0.0798138 5.04666e-17)
(0.802428 0.0753263 5.32354e-17)
(0.819708 0.0717293 5.06772e-17)
(0.833117 0.0649855 5.54953e-17)
(0.848286 0.0593188 5.32479e-17)
(0.859618 0.0511995 5.81093e-17)
(0.873771 0.0454357 5.72238e-17)
(0.880842 0.0347424 6.13707e-17)
(0.890064 0.0279746 6.05933e-17)
(0.892259 0.0156879 6.38613e-17)
(0.892317 0.00906718 6.3311e-17)
(0.900298 -0.000878985 6.66723e-17)
(0.887965 -0.00854786 6.67408e-17)
(0.895108 -0.0140139 7.0643e-17)
(0.887533 -0.0239789 7.15145e-17)
(0.885512 -0.0284828 7.52864e-17)
(0.880813 -0.0364922 7.5029e-17)
(0.875359 -0.0409744 7.75395e-17)
(0.872628 -0.0465186 7.70476e-17)
(0.867854 -0.0513684 7.84349e-17)
(0.864173 -0.0571986 7.74089e-17)
(0.85706 -0.0604628 7.80524e-17)
(0.854357 -0.0652649 7.63921e-17)
(0.849863 -0.0682445 7.69279e-17)
(0.846716 -0.0723521 7.59495e-17)
(0.843434 -0.0759171 7.62463e-17)
(0.83952 -0.0811765 7.47614e-17)
(0.834862 -0.084323 7.5654e-17)